% Model:                CdZnTE_280211_2D_SE_WP_Cathode.mph
% Version:              COMSOL 4.1.0.88
% Date:                 Jul 11 2011, 14:33
% Dimension:            2
% Nodes:                56934
% Expressions:          1
% Description:          Electric potential
% x                       y                        V (V)
-2                        -1.8645293522661046      3.0351902207337272E-5
-2                        -2.1                     3.0167279546304952E-5
-1.846364360343395        -1.9401710821195468      3.0173510050715446E-5
-2                        -2.1                     3.0167279546304952E-5
-1.764796222180569        -2.1                     2.9983621272822874E-5
-1.846364360343395        -1.9401710821195468      3.0173510050715446E-5
-2                        -1.6286088480525398      3.091057330970008E-5
-2                        -1.8645293522661046      3.0351902207337272E-5
-1.8245167365948494       -1.7449367782940313      3.0483491607842125E-5
-2                        -1.3926883424495373      3.185279806293377E-5
-2                        -1.6286088480525398      3.091057330970008E-5
-1.8168623695316584       -1.512189523512412       3.1209414863036725E-5
-1.764796222180569        -2.1                     2.9983621272822874E-5
-1.529392217779427        -2.1                     2.943564972738311E-5
-1.6425247983867886       -1.8914043628477542      2.9885645060731975E-5
-2                        -1.1567678368465348      3.3192433104080225E-5
-2                        -1.3926883424495373      3.185279806293377E-5
-1.8122455777218598       -1.2767049080338484      3.233252596987552E-5
-1.529392217779427        -2.1                     2.943564972738311E-5
-1.2939882132423535       -2.1                     2.8534387362525013E-5
-1.3989614082807784       -1.9110406672624995      2.908989379037888E-5
-2                        -0.920847331243532       3.49443461883613E-5
-2                        -1.1567678368465348      3.3192433104080225E-5
-1.8109836351205506       -1.0405681798744235      3.3868326868609235E-5
-1.2939882132423535       -2.1                     2.8534387362525013E-5
-1.05858420870528         -2.1                     2.7300113806171077E-5
-1.1696308739542287       -1.909293466203794       2.8027065078188496E-5
-2                        -0.6849268256405294      3.711950624908998E-5
-2                        -0.920847331243532       3.49443461883613E-5
-1.810295659913922        -0.8045304929098868      3.5825404001807584E-5
-1.05858420870528         -2.1                     2.7300113806171077E-5
-0.8231802041682066       -2.1                     2.5764166411383797E-5
-0.9374566002124125       -1.908700173002049       2.6638264277588604E-5
-2                        -0.4490063200375265      3.97186198003257E-5
-2                        -0.6849268256405294      3.711950624908998E-5
-1.8097491300494364       -0.5683692088677957      3.821421055768203E-5
-0.8231802041682066       -2.1                     2.5764166411383797E-5
-0.587776199631133        -2.1                     2.397099767154427E-5
-0.702442025043489        -1.9095207699513645      2.4948830204430947E-5
-2                        -0.21308581443452423     4.272507174529969E-5
-2                        -0.4490063200375265      3.97186198003257E-5
-1.8097640917460813       -0.3318487261805915      4.1034426433260164E-5
-0.587776199631133        -2.1                     2.397099767154427E-5
-0.3523721950940597       -2.1                     2.1978945337317353E-5
-0.4672480472817225       -1.9100923020549863      2.302557095403532E-5
-2                        0.02283469116847825      4.609859697906451E-5
-2                        -0.21308581443452423     4.272507174529969E-5
-1.8105412062410897       -0.0958658833976639      4.4249007657090934E-5
-0.3523721950940597       -2.1                     2.1978945337317353E-5
-0.11696819055698615      -2.1                     1.9858612721872814E-5
-0.23252005099952355      -1.9100649405128722      2.0939805433725283E-5
-2                        0.2587551967714812       4.977150701275346E-5
-2                        0.02283469116847825      4.609859697906451E-5
-1.8110785387248838       0.14021195088646163      4.781084929485734E-5
-0.11696819055698615      -2.1                     1.9858612721872814E-5
0.11843581398008718       -2.1                     1.768807242705974E-5
0.0028064179962684482     -1.9097863682838865      1.8758563924900865E-5
0.3639115504057773        -0.1                     0
0.27                      -0.1                     0
0.3155232914343534        -0.1891591978532564      5.005685843452296E-6
0.18706786716800006       0                        1.1935040160642385E-5
0.09725799567993655       0                        1.8575749299433567E-5
0.136474273000267         -0.06484323953093968     1.4011981874136838E-5
0.09725799567993655       0                        1.8575749299433567E-5
0                         0                        2.362307103879445E-5
0.04825893493545653       -0.083540921452322       1.906798305916667E-5
-2                        0.49467570237448366      5.3648897621022E-5
-2                        0.2587551967714812       4.977150701275346E-5
-1.8108872450663813       0.37611999723855494      5.163321087405249E-5
0.11843581398008718       -2.1                     1.768807242705974E-5
0.3538398185171605        -2.1                     1.5545189281013492E-5
0.23790455401201951       -1.9095195768809718      1.657081650989251E-5
0.4676574669449062        -0.1                     0
0.3639115504057773        -0.1                     0
0.41484073698070734       -0.19607074930896257     3.389957630459811E-6
0.27                      -0.1                     0
0.27                      0                        0
0.2093597961748373        -0.058752783995909975    7.71485527940594E-6
0.27                      0                        0
0.18706786716800006       0                        1.1935040160642385E-5
0.2093597961748373        -0.058752783995909975    7.71485527940594E-6
0                         0                        2.362307103879445E-5
0                         0.10390640015745226      2.7544630280060486E-5
-0.09240933680645019      0.05644175854491199      2.9040286846519803E-5
-2                        0.7305962079774864       5.761321717996038E-5
-2                        0.49467570237448366      5.3648897621022E-5
-1.8102978591166694       0.6121077323603339       5.561166182726156E-5
0.3538398185171605        -2.1                     1.5545189281013492E-5
0.5892438230542343        -2.1                     1.349887486819365E-5
0.47351012803695564       -1.9096142074834344      1.444711706704242E-5
0.5822677116210757        -0.1                     0
0.4676574669449062        -0.1                     0
0.5254387392722403        -0.19828333020975616     2.489324174869187E-6
0                         0.10390640015745226      2.7544630280060486E-5
0                         0.21464725366904303      3.270246379124964E-5
-0.09413192195342449      0.162719619652995        3.302486121498755E-5
-2                        0.9665167135804887       6.153219207846685E-5
-2                        0.7305962079774864       5.761321717996038E-5
-1.809636460660011        0.8481252817224755       5.9616812219473624E-5
0.5892438230542343        -2.1                     1.349887486819365E-5
0.8246478275913076        -2.1                     1.1601957303239915E-5
0.7092119849183914        -1.9101441564387935      1.2455105399633345E-5
0.7088801016846716        -0.1                     0
0.5822677116210757        -0.1                     0
0.6463164295287661        -0.20419523662202613     2.0181121955816267E-6
0                         0.21464725366904303      3.270246379124964E-5
0                         0.33402136525582626      3.8783710890780735E-5
-0.10238192627319108      0.2773266173600838       3.8061678151945664E-5
-2                        1.2024372191834916       6.526838345026061E-5
-2                        0.9665167135804887       6.153219207846685E-5
-1.8093966065345832       1.0848785704694899       6.352023440590705E-5
0.8246478275913076        -2.1                     1.1601957303239915E-5
1.060051832128381         -2.1                     9.887776503533528E-6
0.944810122475995         -1.9110638723910947      1.0640076677323267E-5
0.8462977796009774        -0.1                     0
0.7088801016846716        -0.1                     0
0.7768427587250946        -0.20990692940404454     1.6918942692678614E-6
0.9855914897201027        -0.1                     0
0.8462977796009774        -0.1                     0
0.913331841434306         -0.21558011435769117     1.4548521726608534E-6
0                         0.33402136525582626      3.8783710890780735E-5
0                         0.4654409456151904       4.565244753214806E-5
-0.11195765141043862      0.40324858292617355      4.3872248190592816E-5
-2                        1.4383577247864943       6.86886289687401E-5
-2                        1.2024372191834916       6.526838345026061E-5
-1.8102250904199269       1.3218538434612288       6.717040147523757E-5
1.060051832128381         -2.1                     9.887776503533528E-6
1.295455836665455         -2.1                     8.37090439299881E-6
1.1802724333881178        -1.9121585231134839      9.024406540088035E-6
1.125026545438824         -0.1                     0
0.9855914897201027        -0.1                     0
1.0526738918134877        -0.21908653224120095     1.2530293179654558E-6
0                         0.4654409456151904       4.565244753214806E-5
0                         0.610624405923613        5.317244975601182E-5
-0.12289197340930254      0.5418004846451476       5.029719443738048E-5
-2                        1.6742782303894965       7.167219604816479E-5
-2                        1.4383577247864943       6.86886289687401E-5
-1.8117366697933595       1.5575821788674828       7.041509619188885E-5
1.295455836665455         -2.1                     8.37090439299881E-6
1.530859841202528         -2.1                     7.050776060064282E-6
1.415644348200134         -1.9131497033115414      7.611946695302742E-6
1.2644616011575456        -0.1                     0
1.125026545438824         -0.1                     0
1.192874707343497         -0.22084913007607143     1.080983030274782E-6
1.4038966568762674        -0.1                     0
1.2644616011575456        -0.1                     0
1.332907164897741         -0.22178949665731593     9.380125068405248E-7
0                         0.610624405923613        5.317244975601182E-5
0                         0.7710264798716884       6.121652326716468E-5
-0.13536872088927018      0.6951252260151842       5.72238676522274E-5
-2                        1.910198735992499        7.41171326667982E-5
-2                        1.6742782303894965       7.167219604816479E-5
-1.8133091131503543       1.7928042318094808       7.315642625932813E-5
1.530859841202528         -2.1                     7.050776060064282E-6
1.7662638457396016        -2.1                     5.916437944044789E-6
1.6509678419102916        -1.913947536518745       6.394112788242881E-6
1.5433317125949886        -0.1                     0
1.4038966568762674        -0.1                     0
1.4728399671468908        -0.22170163536203236     8.145886737486932E-7
1.6827667683137104        -0.1                     0
1.5433317125949886        -0.1                     0
1.6126369874543267        -0.22130472154584246     7.10500492556271E-7
0                         0.7710264798716884       6.121652326716468E-5
0                         0.9482303952029425       6.963890657675456E-5
-0.14885945969644046      0.8648426735342333       6.450235584995607E-5
-2                        2.146119241595502        7.59448835363142E-5
-2                        1.910198735992499        7.41171326667982E-5
-1.8142915345256305       2.0277163781428866       7.53101027625214E-5
1.7662638457396016        -2.1                     5.916437944044789E-6
2.001667850276675         -2.1                     4.950984682421027E-6
1.8862179694928296        -1.9145872085847693      5.355161211788261E-6
1.8222018240324316        -0.1                     0
1.6827667683137104        -0.1                     0
1.7524205024856452        -0.22053470949905415     6.209873605801313E-7
0                         0.9482303952029425       6.963890657675456E-5
0                         1.1439937446136246       7.824025418172058E-5
-0.16192274258080808      1.0514843059799799       7.192427806661556E-5
-2                        2.382039747198504        7.710341061417841E-5
-2                        2.146119241595502        7.59448835363142E-5
-1.8145440777929016       2.2632242380517997       7.681847877824725E-5
2.001667850276675         -2.1                     4.950984682421027E-6
2.2370718548137485        -2.1                     4.134981549311481E-6
2.1212403142882224        -1.9149067733046004      4.4760136685045886E-6
1.9616368797511532        -0.1                     0
1.8222018240324316        -0.1                     0
1.8921889778912155        -0.21910083407876818     5.418725697619108E-7
0                         1.1439937446136246       7.824025418172058E-5
0                         1.3588800130833947       8.668400090820286E-5
-0.1732581259874024       1.2542482820910217       7.92158301685728E-5
-2                        2.617960252801507        7.756911814169276E-5
-2                        2.382039747198504        7.710341061417841E-5
-1.8145535266948256       2.4988131618576177       7.763638276651652E-5
2.2370718548137485        -2.1                     4.134981549311481E-6
2.4724758593508214        -2.1                     3.4487561934047324E-6
2.3561757520121613        -1.9147880629664602      3.7356290138070843E-6
2.101071935469875         -0.1                     0
1.9616368797511532        -0.1                     0
2.0316898183392325        -0.21925732829813563     4.807127385504786E-7
0                         1.3588800130833947       8.668400090820286E-5
0                         1.5858597535302605       9.431329573042554E-5
-0.1795084219252066       1.473580209319907        8.617796545036544E-5
0                         1.5858597535302605       9.431329573042554E-5
0                         1.8143948151476934       1.0051302200330038E-4
-0.18186824464524037      1.6998398195295814       9.223844476484336E-5
-2                        2.853880758404509        7.734778161308626E-5
-2                        2.617960252801507        7.756911814169276E-5
-1.8145862475632197       2.734488951757493        7.775330991661562E-5
2.4724758593508214        -2.1                     3.4487561934047324E-6
2.707879863887895         -2.1                     2.8737445486432973E-6
2.5899536735415256        -1.9134352851616074      3.116856056373909E-6
2.2405069911885964        -0.1                     0
2.101071935469875         -0.1                     0
2.170954403518864         -0.21946306339801872     4.277377906424407E-7
2.379942046907318         -0.1                     0
2.2405069911885964        -0.1                     0
2.309867120532118         -0.22014465275618314     3.829400199231264E-7
2.519377102626039         -0.1                     0
2.379942046907318         -0.1                     0
2.4488005906732924        -0.2209684430572204      3.4372968072579376E-7
2.658812158344761         -0.1                     0
2.519377102626039         -0.1                     0
2.5880989398843437        -0.22170854871881326     3.085835842944612E-7
2.7982472140634824        -0.1                     0
2.658812158344761         -0.1                     0
2.7277088914998533        -0.22229159769563386     2.7686280782715803E-7
2.937682269782204         -0.1                     0
2.7982472140634824        -0.1                     0
2.8673465975262697        -0.22265964559435705     2.4815178227907694E-7
0                         1.8143948151476934       1.0051302200330038E-4
0                         2.0429298767651267       1.0510814324121004E-4
-0.18216771003371712      1.9273041279334155       9.704313618335971E-5
0                         2.0429298767651267       1.0510814324121004E-4
0                         2.2714649383825596       1.080120838498964E-4
-0.18229260576086537      2.1562463098664746       1.0043094937805359E-4
-2                        3.0898012640075114       7.647458802763601E-5
-2                        2.853880758404509        7.734778161308626E-5
-1.8147035551189845       2.970305247884012        7.718861260848818E-5
2.707879863887895         -2.1                     2.8737445486432973E-6
2.9432838684249694        -2.1                     2.393165036819463E-6
2.825796342759402         -1.9132455382417968      2.594963813420822E-6
3.077117325500925         -0.1                     0
2.937682269782204         -0.1                     0
3.006845660651237         -0.22280196545492512     2.2217509107885133E-7
3.216552381219647         -0.1                     0
3.077117325500925         -0.1                     0
3.146241572668467         -0.2227424114060532      1.9871240448149055E-7
0                         2.2714649383825596       1.080120838498964E-4
0                         2.499999999999993        1.0917151866477225E-4
-0.1823419249881126       2.385524144460483        1.0229675997672594E-4
-2                        3.3257217696105137       7.50132338494303E-5
-2                        3.0898012640075114       7.647458802763601E-5
-1.8147743583868332       3.2062665836821345       7.599121677883896E-5
2.9432838684249694        -2.1                     2.393165036819463E-6
3.178687872962042         -2.1                     1.9922571404915336E-6
3.0614391638272775        -1.912865551540289       2.159833153235278E-6
3.355987436938369         -0.1                     0
3.216552381219647         -0.1                     0
3.2856120273994947        -0.22253224234583127     1.7759216248167775E-7
3.4954224926570903        -0.1                     0
3.355987436938369         -0.1                     0
3.425086090583705         -0.22232270811302624     1.587648280639353E-7
0                         2.499999999999993        1.0917151866477225E-4
0                         2.7285350616174258       1.0856767660977719E-4
-0.1822236976140133       2.614944241793911        1.0260278129214584E-4
0                         2.7285350616174258       1.0856767660977719E-4
0                         2.957070123234859        1.0621675651621008E-4
-0.18182831952101428      2.844479394520134        1.013494898648995E-4
-2                        3.561642275213515        7.305388572994594E-5
-2                        3.3257217696105137       7.50132338494303E-5
-1.814508241982538        3.4422189006433794       7.423971602919604E-5
3.178687872962042         -2.1                     1.9922571404915336E-6
3.4140918774991156        -2.1                     1.658275913877894E-6
3.2970061712504695        -1.9127564014644418      1.7974527080905598E-6
3.6348575483758117        -0.1                     0
3.4954224926570903        -0.1                     0
3.564745989017066         -0.22231573791816542     1.4219572631871957E-7
3.774292604094533         -0.1                     0
3.6348575483758117        -0.1                     0
3.704437425395104         -0.22251683930070898     1.2760965883007103E-7
0                         2.957070123234859        1.0621675651621008E-4
0                         3.185605184852292        1.0216948736357779E-4
-0.18103431719503904      3.0739776433646573       9.857353864188296E-5
-2                        3.797562780816517        7.070967453939201E-5
-2                        3.561642275213515        7.305388572994594E-5
-1.8134260535470643       3.6778830759728005       7.204054359644213E-5
3.4140918774991156        -2.1                     1.658275913877894E-6
3.6494958820361894        -2.1                     1.3803512642027742E-6
3.5325985356809597        -1.9130223104015338      1.495875755058219E-6
3.913727659813255         -0.1                     0
3.774292604094533         -0.1                     0
3.844001964580865         -0.2227039137934069      1.145536943202699E-7
4.053162715531976         -0.1                     0
3.913727659813255         -0.1                     0
3.983533451182107         -0.22272860799811336     1.0273320641995686E-7
0                         3.185605184852292        1.0216948736357779E-4
0                         3.4141402464697252       9.650989479930404E-5
-0.17941097912602774      3.302977961818844        9.436209816969876E-5
0                         3.4141402464697252       9.650989479930404E-5
0                         3.641119986916597        8.940670493981616E-5
-0.17613686177319635      3.5289963861416385       8.890175032462641E-5
0                         3.641119986916597        8.940670493981616E-5
0                         3.8560062553863665       8.144945527849844E-5
-0.1690979428154845       3.7473075363988624       8.253356645954673E-5
0                         3.8560062553863665       8.144945527849844E-5
0                         4.051769604797049        7.328066747028559E-5
-0.15879845081525432      3.951390900587333        7.56784023609393E-5
-2                        4.0334832864195205       6.811126837399311E-5
-2                        3.797562780816517        7.070967453939201E-5
-1.812388910890345        3.9139707177051837       6.95096074350075E-5
3.6494958820361894        -2.1                     1.3803512642027742E-6
3.8848998865732622        -2.1                     1.1492906634017503E-6
3.768076711339408         -1.9134476851189879      1.24523429706422E-6
4.192597771250697         -0.1                     0
4.053162715531976         -0.1                     0
4.123173315966267         -0.22265607970849863     9.208329993471273E-8
4.332032826969419         -0.1                     0
4.192597771250697         -0.1                     0
4.262887984957112         -0.2225697145639814      8.25546902693718E-8
0                         4.051769604797049        7.328066747028559E-5
0                         4.228973520128305        6.524152627623633E-5
-0.14640986302166575      4.137549911688174        6.872295926703538E-5
-2                        4.269403792022521        6.539920497404612E-5
-2                        4.0334832864195205       6.811126837399311E-5
-1.8112369623242779       4.150177172422889        6.678879291835679E-5
3.8848998865732622        -2.1                     1.1492906634017503E-6
4.120303891110336         -2.1                     9.57366550061688E-7
4.003253548477235         -1.9137409163502896      1.0371994648326994E-6
4.471467882688141         -0.1                     0
4.332032826969419         -0.1                     0
4.402591687730564         -0.22245830723910032     7.40298630498514E-8
4.610902938406863         -0.1                     0
4.471467882688141         -0.1                     0
4.542291634883714         -0.22231805150883424     6.640388390013372E-8
0                         4.228973520128305        6.524152627623633E-5
0                         4.389375594076383        5.7542534071577665E-5
-0.13478616034299182      4.306646857114516        6.189091410709212E-5
-2                        4.505324297625524        6.271388408548922E-5
-2                        4.269403792022521        6.539920497404612E-5
-1.8108990640579306       4.3863985952651126       6.402517218822143E-5
4.120303891110336         -2.1                     9.57366550061688E-7
4.35570789564741          -2.1                     7.981109128745687E-7
4.238223236357064         -1.9136704712417378      8.645619208756656E-7
4.750337994125584         -0.1                     0
4.610902938406863         -0.1                     0
4.681973398034401         -0.222155867764129       5.959012674542428E-8
0                         4.389375594076383        5.7542534071577665E-5
0                         4.534559054384806        5.034326840299317E-5
-0.12390885147414508      4.460050095550938        5.538231167947742E-5
0                         4.534559054384806        5.034326840299317E-5
0                         4.665978634744171        4.3797404435545764E-5
-0.11431750405086824      4.598908349427916        4.938648364421672E-5
-2                        4.7412448032285255       6.0183886512650964E-5
-2                        4.505324297625524        6.271388408548922E-5
-1.810825790900088        4.622746456789798        6.135881946579082E-5
4.8897730498443055        -0.1                     0
4.750337994125584         -0.1                     0
4.82158565554097          -0.22194589576647897     5.349702871640136E-8
4.35570789564741          -2.1                     7.981109128745687E-7
4.591111900184483         -2.1                     6.661281997221956E-7
4.473364488870661         -1.913217936025103       7.212250598806932E-7
5.029208105563027         -0.1                     0
4.8897730498443055        -0.1                     0
4.961178047977154         -0.2217109037287116      4.8060940163175646E-8
0                         4.665978634744171        4.3797404435545764E-5
0                         4.785352746330957        3.807997904666997E-5
-0.10616172329562268      4.724920711233303        4.407477033035395E-5
-2                        4.977165308831528        5.791416769705805E-5
-2                        4.7412448032285255       6.0183886512650964E-5
-1.810934242614844        4.8591477658263225       5.8913488557323635E-5
4.591111900184483         -2.1                     6.661281997221956E-7
4.826515904721557         -2.1                     5.56930675298863E-7
4.70881662155852          -1.9126859944033898      6.023627895774195E-7
5.168643161281748         -0.1                     0
5.029208105563027         -0.1                     0
5.100788308544586         -0.22157220136551412     4.325817918391194E-8
0                         4.785352746330957        3.807997904666997E-5
0                         4.896093599842548        3.341711454902849E-5
-0.09875504944445097      4.840263815955695        3.960131294271832E-5
-2                        5.21308581443453         5.59765157955547E-5
-2                        4.977165308831528        5.791416769705805E-5
-1.8109653461710749       5.095612306736077        5.6781507803706254E-5
-2                        5.449006320037531        5.440469456221273E-5
-2                        5.21308581443453         5.59765157955547E-5
-1.8104698060615043       5.332418170827913        5.501465451451858E-5
4.826515904721557         -2.1                     5.56930675298863E-7
5.061919909258631         -2.1                     4.667962714832481E-7
4.944317778872884         -1.912532314174615       5.041408410525159E-7
5.308078217000469         -0.1                     0
5.168643161281748         -0.1                     0
5.2402854346454175        -0.22163605167058242     3.905577854047442E-8
0                         4.896093599842548        3.341711454902849E-5
0                         5                        3.0248493693675932E-5
-0.09752139268225549      4.944990626336669        3.644630804387879E-5
-2                        5.6849268256405345       5.319563217460833E-5
-2                        5.449006320037531        5.440469456221273E-5
-1.8095149671305624       5.569514327014867        5.362837094300612E-5
5.447513272719191         -0.1                     0
5.308078217000469         -0.1                     0
5.379471834422474         -0.2218116247760093      3.5359742980900215E-8
5.061919909258631         -2.1                     4.667962714832481E-7
5.297323913795703         -2.1                     3.926473675966082E-7
5.179835162781797         -1.9126174191717071      4.2320559742725147E-7
5.586948328437913         -0.1                     0
5.447513272719191         -0.1                     0
5.518295822878883         -0.22178694500657162     3.203289142996636E-8
5.726383384156634         -0.1                     0
5.586948328437913         -0.1                     0
5.65697084260933          -0.22167894489010276     2.9072131906300983E-8
0                         5                        3.0248493693675932E-5
0.09725799567993704       5                        2.3655838918699672E-5
0.04549028241684818       5.084242024656803        2.60923229647405E-5
-2                        5.920847331243536        5.231625271091274E-5
-2                        5.6849268256405345       5.319563217460833E-5
-1.8068187192012128       5.80682498208139         5.26004679553933E-5
-2                        6.156767836846538        5.171390295246731E-5
-2                        5.920847331243536        5.231625271091274E-5
-1.8026107942666219       6.047812453281348        5.1875732777893235E-5
5.297323913795703         -2.1                     3.926473675966082E-7
5.532727918332776         -2.1                     3.319490983660322E-7
5.415313699135471         -1.9127954095606348      3.5679303427094583E-7
5.865818439875356         -0.1                     0
5.726383384156634         -0.1                     0
5.795592355771693         -0.22128094252934744     2.6399851944350558E-8
6.0052534955940775        -0.1                     0
5.865818439875356         -0.1                     0
5.934404023592075         -0.2209415381826476      2.4065648224490332E-8
0.09725799567993704       5                        2.3655838918699672E-5
0.18706786716800028       5                        1.500857905109497E-5
0.1341775722796173        5.076781767364179        1.9073256012973592E-5
0.18706786716800028       5                        1.500857905109497E-5
0.27                      5                        0
0.20588771972661823       5.079897859618956        1.1016005735544241E-5
-2                        6.39268834244954         5.132804976411894E-5
-2                        6.156767836846538        5.171390295246731E-5