% Model:                CdZnTE_280211_2D_SE_WP_Cathode.mph
% Version:              COMSOL 4.1.0.88
% Date:                 Jul 11 2011, 14:14
% Dimension:            2
% Nodes:                56934
% Expressions:          1
% Description:          Electric potential
% x                       y                        V (V)
-2                        -1.8645293522661046      0.08177820802741322
-2                        -2.1                     0.08124433542494656
-1.846364360343395        -1.9401710821195468      0.0812620504092007
-2                        -2.1                     0.08124433542494656
-1.764796222180569        -2.1                     0.08071395389833233
-1.846364360343395        -1.9401710821195468      0.0812620504092007
-2                        -1.6286088480525398      0.0833983310862982
-2                        -1.8645293522661046      0.08177820802741322
-1.8245167365948494       -1.7449367782940313      0.08215730921548949
-2                        -1.3926883424495373      0.08614675725570417
-2                        -1.6286088480525398      0.0833983310862982
-1.8168623695316584       -1.512189523512412       0.08426176877823235
-1.764796222180569        -2.1                     0.08071395389833233
-1.529392217779427        -2.1                     0.07913586726656953
-1.6425247983867886       -1.8914043628477542      0.08042876163400765
-2                        -1.1567678368465348      0.0900907961169522
-2                        -1.3926883424495373      0.08614675725570417
-1.8122455777218598       -1.2767049080338484      0.08754044720237991
-1.529392217779427        -2.1                     0.07913586726656953
-1.2939882132423535       -2.1                     0.07655382075164414
-1.3989614082807784       -1.9110406672624995      0.07813770435058327
-2                        -0.920847331243532       0.09531771259051115
-2                        -1.1567678368465348      0.0900907961169522
-1.8109836351205506       -1.0405681798744235      0.09207209358248698
-1.2939882132423535       -2.1                     0.07655382075164414
-1.05858420870528         -2.1                     0.0730438491020836
-1.1696308739542287       -1.909293466203794       0.07509765090139313
-2                        -0.6849268256405294      0.10192665235093508
-2                        -0.920847331243532       0.09531771259051115
-1.810295659913922        -0.8045304929098868      0.09793389084135125
-1.05858420870528         -2.1                     0.0730438491020836
-0.8231802041682066       -2.1                     0.06871551636863216
-0.9374566002124125       -1.908700173002049       0.07115931259446467
-2                        -0.4490063200375265      0.11001759375919616
-2                        -0.6849268256405294      0.10192665235093508
-1.8097491300494364       -0.5683692088677957      0.10523528487137043
-0.8231802041682066       -2.1                     0.06871551636863216
-0.587776199631133        -2.1                     0.06371347009988376
-0.702442025043489        -1.9095207699513645      0.06641704181276603
-2                        -0.21308581443452423     0.1196783997279372
-2                        -0.4490063200375265      0.11001759375919616
-1.8097640917460813       -0.3318487261805915      0.11409109170769373
-0.587776199631133        -2.1                     0.06371347009988376
-0.3523721950940597       -2.1                     0.05821527622411639
-0.4672480472817225       -1.9100923020549863      0.061077380324517365
-2                        0.02283469116847825      0.13097229722551623
-2                        -0.21308581443452423     0.1196783997279372
-1.8105412062410897       -0.0958658833976639      0.12454863188950123
-0.3523721950940597       -2.1                     0.05821527622411639
-0.11696819055698615      -2.1                     0.052423675204337855
-0.23252005099952355      -1.9100649405128722      0.05535013693890562
-2                        0.2587551967714812       0.14392889436890355
-2                        0.02283469116847825      0.13097229722551623
-1.8110785387248838       0.14021195088646163      0.13667530241465983
-0.11696819055698615      -2.1                     0.052423675204337855
0.11843581398008718       -2.1                     0.04655211589609313
0.0028064179962684482     -1.9097863682838865      0.04942333864656924
0.3639115504057773        -0.1                     0
0.27                      -0.1                     0
0.3155232914343534        -0.1891591978532564      0.012129710040736437
0.18706786716800006       0                        0.02550106251359671
0.09725799567993655       0                        0.04090180064548484
0.136474273000267         -0.06484323953093968     0.0315366094455486
0.09725799567993655       0                        0.04090180064548484
0                         0                        0.05339307464929279
0.04825893493545653       -0.083540921452322       0.043861625259983994
-2                        0.49467570237448366      0.15854119752924958
-2                        0.2587551967714812       0.14392889436890355
-1.8108872450663813       0.37611999723855494      0.15046497320533384
0.11843581398008718       -2.1                     0.04655211589609313
0.3538398185171605        -2.1                     0.04080486514142534
0.23790455401201951       -1.9095195768809718      0.04353488531090911
0.4676574669449062        -0.1                     0
0.3639115504057773        -0.1                     0
0.41484073698070734       -0.19607074930896257     0.008366248171321632
0.27                      -0.1                     0
0.27                      0                        0
0.2093597961748373        -0.058752783995909975    0.017121948116298084
0.27                      0                        0
0.18706786716800006       0                        0.02550106251359671
0.2093597961748373        -0.058752783995909975    0.017121948116298084
0                         0                        0.05339307464929279
0                         0.10390640015745226      0.060338010120379815
-0.09240933680645019      0.05644175854491199      0.06623167919332128
-2                        0.7305962079774864       0.17476912025873031
-2                        0.49467570237448366      0.15854119752924958
-1.8102978591166694       0.6121077323603339       0.16590692410708943
0.3538398185171605        -2.1                     0.04080486514142534
0.5892438230542343        -2.1                     0.03535623031539334
0.47351012803695564       -1.9096142074834344      0.03786494178330945
0.5822677116210757        -0.1                     0
0.4676574669449062        -0.1                     0
0.5254387392722403        -0.19828333020975616     0.006223714680547721
0                         0.10390640015745226      0.060338010120379815
0                         0.21464725366904303      0.06960874046328097
-0.09413192195342449      0.162719619652995        0.07362497063850644
-2                        0.9665167135804887       0.19254761696603645
-2                        0.7305962079774864       0.17476912025873031
-1.809636460660011        0.8481252817224755       0.18294417296354124
0.5892438230542343        -2.1                     0.03535623031539334
0.8246478275913076        -2.1                     0.030334956905128503
0.7092119849183914        -1.9101441564387935      0.03258161344302998
0.7088801016846716        -0.1                     0
0.5822677116210757        -0.1                     0
0.6463164295287661        -0.20419523662202613     0.005094591990049139
0                         0.21464725366904303      0.06960874046328097
0                         0.33402136525582626      0.08059345502652451
-0.10238192627319108      0.2773266173600838       0.08331640878815978
-2                        1.2024372191834916       0.21179625933735907
-2                        0.9665167135804887       0.19254761696603645
-1.8093966065345832       1.0848785704694899       0.20156055081613608
0.8246478275913076        -2.1                     0.030334956905128503
1.060051832128381         -2.1                     0.02581817018677131
0.944810122475995         -1.9110638723910947      0.02779248214365106
0.8462977796009774        -0.1                     0
0.7088801016846716        -0.1                     0
0.7768427587250946        -0.20990692940404454     0.004302100637405289
0.9855914897201027        -0.1                     0
0.8462977796009774        -0.1                     0
0.913331841434306         -0.21558011435769117     0.0037193812763690573
0                         0.33402136525582626      0.08059345502652451
0                         0.4654409456151904       0.09309900601961593
-0.11195765141043862      0.40324858292617355      0.09470240409210734
-2                        1.4383577247864943       0.23242719357727695
-2                        1.2024372191834916       0.21179625933735907
-1.8102250904199269       1.3218538434612288       0.22163947447794197
1.060051832128381         -2.1                     0.02581817018677131
1.295455836665455         -2.1                     0.021835144352053585
1.1802724333881178        -1.9121585231134839      0.02354595394625733
1.125026545438824         -0.1                     0
0.9855914897201027        -0.1                     0
1.0526738918134877        -0.21908653224120095     0.003216298064537579
0                         0.4654409456151904       0.09309900601961593
0                         0.610624405923613        0.10704060940892852
-0.12289197340930254      0.5418004846451476       0.10765118545908724
-2                        1.6742782303894965       0.25434955279594995
-2                        1.4383577247864943       0.23242719357727695
-1.8117366697933595       1.5575821788674828       0.24295377769158308
1.295455836665455         -2.1                     0.021835144352053585
1.530859841202528         -2.1                     0.0183775973985954
1.415644348200134         -1.9131497033115414      0.01984413630603039
1.2644616011575456        -0.1                     0
1.125026545438824         -0.1                     0
1.192874707343497         -0.22084913007607143     0.0027830373335285628
1.4038966568762674        -0.1                     0
1.2644616011575456        -0.1                     0
1.332907164897741         -0.22178949665731593     0.002420447996958657
0                         0.610624405923613        0.10704060940892852
0                         0.7710264798716884       0.12247030921211641
-0.13536872088927018      0.6951252260151842       0.12223474221045454
-2                        1.910198735992499        0.2774696592354433
-2                        1.6742782303894965       0.25434955279594995
-1.8133091131503543       1.7928042318094808       0.26546136542942295
1.530859841202528         -2.1                     0.0183775973985954
1.7662638457396016        -2.1                     0.01541212168274961
1.6509678419102916        -1.913947536518745       0.016658954016272796
1.5433317125949886        -0.1                     0
1.4038966568762674        -0.1                     0
1.4728399671468908        -0.22170163536203236     0.0021056236685085
1.6827667683137104        -0.1                     0
1.5433317125949886        -0.1                     0
1.6126369874543267        -0.22130472154584246     0.001839031704715725
0                         0.7710264798716884       0.12247030921211641
0                         0.9482303952029425       0.13955445165073488
-0.14885945969644046      0.8648426735342333       0.138549141087159
-2                        2.146119241595502        0.3016872363238882
-2                        1.910198735992499        0.2774696592354433
-1.8142915345256305       2.0277163781428866       0.2890786481941521
1.7662638457396016        -2.1                     0.01541212168274961
2.001667850276675         -2.1                     0.012891415104989734
1.8862179694928296        -1.9145872085847693      0.0139455524213302
1.8222018240324316        -0.1                     0
1.6827667683137104        -0.1                     0
1.7524205024856452        -0.22053470949905415     0.0016090095637032377
0                         0.9482303952029425       0.13955445165073488
0                         1.1439937446136246       0.15855650173021696
-0.16192274258080808      1.0514843059799799       0.15664643346837706
-2                        2.382039747198504        0.326888215378018
-2                        2.146119241595502        0.3016872363238882
-1.8145440777929016       2.2632242380517997       0.3137962923067329
2.001667850276675         -2.1                     0.012891415104989734
2.2370718548137485        -2.1                     0.01076276818793985
2.1212403142882224        -1.9149067733046004      0.011651769897640336
1.9616368797511532        -0.1                     0
1.8222018240324316        -0.1                     0
1.8921889778912155        -0.21910083407876818     0.0014051475761185826
0                         1.1439937446136246       0.15855650173021696
0                         1.3588800130833947       0.17970454713823947
-0.1732581259874024       1.2542482820910217       0.17654492813079534
-2                        2.617960252801507        0.35293482263139164
-2                        2.382039747198504        0.326888215378018
-1.8145535266948256       2.4988131618576177       0.3394465131765124
2.2370718548137485        -2.1                     0.01076276818793985
2.4724758593508214        -2.1                     0.008973651759464393
2.3561757520121613        -1.9147880629664602      0.00972127221904034
2.101071935469875         -0.1                     0
1.9616368797511532        -0.1                     0
2.0316898183392325        -0.21925732829813563     0.001247322731981768
0                         1.3588800130833947       0.17970454713823947
0                         1.5858597535302605       0.2025434621113191
-0.1795084219252066       1.473580209319907        0.19837119087699057
0                         1.5858597535302605       0.2025434621113191
0                         1.8143948151476934       0.22625007081812615
-0.18186824464524037      1.6998398195295814       0.22146291903567053
-2                        2.853880758404509        0.37965374100744004
-2                        2.617960252801507        0.35293482263139164
-1.8145862475632197       2.734488951757493        0.36588243592935704
2.4724758593508214        -2.1                     0.008973651759464393
2.707879863887895         -2.1                     0.007474934540278704
2.5899536735415256        -1.9134352851616074      0.008108470378585492
2.2405069911885964        -0.1                     0
2.101071935469875         -0.1                     0
2.170954403518864         -0.21946306339801872     0.0011103871184576367
2.379942046907318         -0.1                     0
2.2405069911885964        -0.1                     0
2.309867120532118         -0.22014465275618314     9.944388000806587E-4
2.519377102626039         -0.1                     0
2.379942046907318         -0.1                     0
2.4488005906732924        -0.2209684430572204      8.928337660771749E-4
2.658812158344761         -0.1                     0
2.519377102626039         -0.1                     0
2.5880989398843437        -0.22170854871881326     8.016674740286205E-4
2.7982472140634824        -0.1                     0
2.658812158344761         -0.1                     0
2.7277088914998533        -0.22229159769563386     7.193147446636282E-4
2.937682269782204         -0.1                     0
2.7982472140634824        -0.1                     0
2.8673465975262697        -0.22265964559435705     6.447203310079248E-4
0                         1.8143948151476934       0.22625007081812615
0                         2.0429298767651267       0.2508789245085695
-0.18216771003371712      1.9273041279334155       0.2455014108216474
0                         2.0429298767651267       0.2508789245085695
0                         2.2714649383825596       0.2766632431418275
-0.18229260576086537      2.1562463098664746       0.2707746230014249
-2                        3.0898012640075114       0.4068233784326467
-2                        2.853880758404509        0.37965374100744004
-1.8147035551189845       2.970305247884012        0.39291999764946334
2.707879863887895         -2.1                     0.007474934540278704
2.9432838684249694        -2.1                     0.006222441136673581
2.825796342759402         -1.9132455382417968      0.006748392884065673
3.077117325500925         -0.1                     0
2.937682269782204         -0.1                     0
3.006845660651237         -0.22280196545492512     5.771861639428168E-4
3.216552381219647         -0.1                     0
3.077117325500925         -0.1                     0
3.146241572668467         -0.2227424114060532      5.161520608508672E-4
0                         2.2714649383825596       0.2766632431418275
0                         2.499999999999993        0.3038738639068763
-0.1823419249881126       2.385524144460483        0.29737463897355365
-2                        3.3257217696105137       0.43416184365543514
-2                        3.0898012640075114       0.4068233784326467
-1.8147743583868332       3.2062665836821345       0.4203140496394659
2.9432838684249694        -2.1                     0.006222441136673581
3.178687872962042         -2.1                     0.005177445256086262
3.0614391638272775        -1.912865551540289       0.005614361388609729
3.355987436938369         -0.1                     0
3.216552381219647         -0.1                     0
3.2856120273994947        -0.22253224234583127     4.611806054763166E-4
3.4954224926570903        -0.1                     0
3.355987436938369         -0.1                     0
3.425086090583705         -0.22232270811302624     4.1214816884660124E-4
0                         2.499999999999993        0.3038738639068763
0                         2.7285350616174258       0.3328348094403244
-0.1822236976140133       2.614944241793911        0.3255184257012103
0                         2.7285350616174258       0.3328348094403244
0                         2.957070123234859        0.3639408744643468
-0.18182831952101428      2.844479394520134        0.3554843720201963
-2                        3.561642275213515        0.4613181127995258
-2                        3.3257217696105137       0.43416184365543514
-1.814508241982538        3.4422189006433794       0.44773416239884467
3.178687872962042         -2.1                     0.005177445256086262
3.4140918774991156        -2.1                     0.004306575190993846
3.2970061712504695        -1.9127564014644418      0.004669678917935733
3.6348575483758117        -0.1                     0
3.4954224926570903        -0.1                     0
3.564745989017066         -0.22231573791816542     3.689669361447967E-4
3.774292604094533         -0.1                     0
3.6348575483758117        -0.1                     0
3.704437425395104         -0.22251683930070898     3.309229545496008E-4
0                         2.957070123234859        0.3639408744643468
0                         3.185605184852292        0.39767623302786337
-0.18103431719503904      3.0739776433646573       0.38758325815571115
-2                        3.797562780816517        0.4878699364852795
-2                        3.561642275213515        0.4613181127995258
-1.8134260535470643       3.6778830759728005       0.47476418833280326
3.4140918774991156        -2.1                     0.004306575190993846
3.6494958820361894        -2.1                     0.003581398189889017
3.5325985356809597        -1.9130223104015338      0.003883095970799806
3.913727659813255         -0.1                     0
3.774292604094533         -0.1                     0
3.844001964580865         -0.2227039137934069      2.9684076880811725E-4
4.053162715531976         -0.1                     0
3.913727659813255         -0.1                     0
3.983533451182107         -0.22272860799811336     2.6595568858599113E-4
0                         3.185605184852292        0.39767623302786337
0                         3.4141402464697252       0.4346303395274757
-0.17941097912602774      3.302977961818844        0.42211614172223827
0                         3.4141402464697252       0.4346303395274757
0                         3.641119986916597        0.4752091210540518
-0.17613686177319635      3.5289963861416385       0.4590598213639757
0                         3.641119986916597        0.4752091210540518
0                         3.8560062553863665       0.5178754614757802
-0.1690979428154845       3.7473075363988624       0.49786489385245786
0                         3.8560062553863665       0.5178754614757802
0                         4.051769604797049        0.5608846491521079
-0.15879845081525432      3.951390900587333        0.5373828351417036
-2                        4.0334832864195205       0.5133330685399837
-2                        3.797562780816517        0.4878699364852795
-1.812388910890345        3.9139707177051837       0.5010259657280005
3.6494958820361894        -2.1                     0.003581398189889017
3.8848998865732622        -2.1                     0.002977876675377863
3.768076711339408         -1.9134476851189879      0.0032288134842421083
4.192597771250697         -0.1                     0
4.053162715531976         -0.1                     0
4.123173315966267         -0.22265607970849863     2.3809808526829176E-4
4.332032826969419         -0.1                     0
4.192597771250697         -0.1                     0
4.262887984957112         -0.2225697145639814      2.1313806490775512E-4
0                         4.051769604797049        0.5608846491521079
0                         4.228973520128305        0.6035120896294556
-0.14640986302166575      4.137549911688174        0.5765230372019522
-2                        4.269403792022521        0.5371859878012523
-2                        4.0334832864195205       0.5133330685399837
-1.8112369623242779       4.150177172422889        0.5259654033305536
3.8848998865732622        -2.1                     0.002977876675377863
4.120303891110336         -2.1                     0.0024757960206042945
4.003253548477235         -1.9137409163502896      0.002685055970056416
4.471467882688141         -0.1                     0
4.332032826969419         -0.1                     0
4.402591687730564         -0.22245830723910032     1.9076881901393102E-4
4.610902938406863         -0.1                     0
4.471467882688141         -0.1                     0
4.542291634883714         -0.22231805150883424     1.707157108499249E-4
0                         4.228973520128305        0.6035120896294556
0                         4.389375594076383        0.6451010647681328
-0.13478616034299182      4.306646857114516        0.6146672239167976
-2                        4.505324297625524        0.5589125634240389
-2                        4.269403792022521        0.5371859878012523
-1.8108990640579306       4.3863985952651126       0.5490198220299621
4.120303891110336         -2.1                     0.0024757960206042945
4.35570789564741          -2.1                     0.0020582175990828135
4.238223236357064         -1.9136704712417378      0.002232962086026124
4.750337994125584         -0.1                     0
4.610902938406863         -0.1                     0
4.681973398034401         -0.222155867764129       1.5275123035023117E-4
0                         4.389375594076383        0.6451010647681328
0                         4.534559054384806        0.684819350502835
-0.12390885147414508      4.460050095550938        0.6511225213255072
0                         4.534559054384806        0.684819350502835
0                         4.665978634744171        0.7215621651839458
-0.11431750405086824      4.598908349427916        0.6848937786364804
-2                        4.7412448032285255       0.5780599138651858
-2                        4.505324297625524        0.5589125634240389
-1.810825790900088        4.622746456789798        0.5696836581538839
4.8897730498443055        -0.1                     0
4.750337994125584         -0.1                     0
4.82158565554097          -0.22194589576647897     1.3663538608704427E-4
4.35570789564741          -2.1                     0.0020582175990828135
4.591111900184483         -2.1                     0.0017109831418181296
4.473364488870661         -1.913217936025103       0.001856554165564462
5.029208105563027         -0.1                     0
4.8897730498443055        -0.1                     0
4.961178047977154         -0.2217109037287116      1.2219939681737017E-4
0                         4.665978634744171        0.7215621651839458
0                         4.785352746330957        0.753924008873874
-0.10616172329562268      4.724920711233303        0.7148700011664109
-2                        4.977165308831528        0.5943018706540019
-2                        4.7412448032285255       0.5780599138651858
-1.810934242614844        4.8591477658263225       0.5875273067502663
4.591111900184483         -2.1                     0.0017109831418181296
4.826515904721557         -2.1                     0.0014222792986445085
4.70881662155852          -1.9126859944033898      0.0015431460372344063
5.168643161281748         -0.1                     0
5.029208105563027         -0.1                     0
5.100788308544586         -0.22157220136551412     1.093753187853602E-4
0                         4.785352746330957        0.753924008873874
0                         4.896093599842548        0.7800392029282285
-0.09875504944445097      4.840263815955695        0.7399217201014722
-2                        5.21308581443453         0.6074921227592655
-2                        4.977165308831528        0.5943018706540019
-1.8109653461710749       5.095612306736077        0.6022944640816859
-2                        5.449006320037531        0.6176902641800134
-2                        5.21308581443453         0.6074921227592655
-1.8104698060615043       5.332418170827913        0.6139518237484206
4.826515904721557         -2.1                     0.0014222792986445085
5.061919909258631         -2.1                     0.001182261377471516
4.944317778872884         -1.912532314174615       0.001282617284834707
5.308078217000469         -0.1                     0
5.168643161281748         -0.1                     0
5.2402854346454175        -0.22163605167058242     9.807007109220282E-5
0                         4.896093599842548        0.7800392029282285
0                         5                        0.7966946942980587
-0.09752139268225549      4.944990626336669        0.7567000454677859
-2                        5.6849268256405345       0.6251508556897978
-2                        5.449006320037531        0.6176902641800134
-1.8095149671305624       5.569514327014867        0.6226557670287334
5.447513272719191         -0.1                     0
5.308078217000469         -0.1                     0
5.379471834422474         -0.2218116247760093      8.803646421006635E-5
5.061919909258631         -2.1                     0.001182261377471516
5.297323913795703         -2.1                     9.82731460843414E-4
5.179835162781797         -1.9126174191717071      0.001066069887438523
5.586948328437913         -0.1                     0
5.447513272719191         -0.1                     0
5.518295822878883         -0.22178694500657162     7.8923147367341E-5
5.726383384156634         -0.1                     0
5.586948328437913         -0.1                     0
5.65697084260933          -0.22167894489010276     7.07137895019681E-5
0                         5                        0.7966946942980587
0.09725799567993704       5                        0.8415213675960969
0.04549028241684818       5.084242024656803        0.8210900467719994
-2                        5.920847331243536        0.6302778246109016
-2                        5.6849268256405345       0.6251508556897978
-1.8068187192012128       5.80682498208139         0.6287638986489436
-2                        6.156767836846538        0.6335578742165291
-2                        5.920847331243536        0.6302778246109016
-1.8026107942666219       6.047812453281348        0.6327907585169054
5.297323913795703         -2.1                     9.82731460843414E-4
5.532727918332776         -2.1                     8.168667297940511E-4
5.415313699135471         -1.9127954095606348      8.861081029993863E-4
5.865818439875356         -0.1                     0
5.726383384156634         -0.1                     0
5.795592355771693         -0.22128094252934744     6.321068805944305E-5
6.0052534955940775        -0.1                     0
5.865818439875356         -0.1                     0
5.934404023592075         -0.2209415381826476      5.6522242156221845E-5
0.09725799567993704       5                        0.8415213675960969
0.18706786716800028       5                        0.9000426986331326
0.1341775722796173        5.076781767364179        0.8690268964241671
0.18706786716800028       5                        0.9000426986331326
0.27                      5                        1
0.20588771972661823       5.079897859618956        0.9238024782658306
-2                        6.39268834244954         0.6354877569789283
-2                        6.156767836846538        0.6335578742165291
-1.8062875574423924       6.274961294297851        0.6350367909263908
-2                        6.628608848052542        0.6365126119688514
-2                        6.39268834244954         0.6354877569789283
-1.8144714761402954       6.496883162344931        0.6362517735130525
5.532727918332776         -2.1                     8.168667297940511E-4
5.76813192286985          -2.1                     6.789910940588787E-4