% Model:                CdZnTE_280211_2D_SE_WP_Cathode.mph
% Version:              COMSOL 4.1.0.88
% Date:                 Jul 11 2011, 14:16
% Dimension:            2
% Nodes:                56934
% Expressions:          1
% Description:          Electric potential
% x                       y                        V (V)
-2                        -1.8645293522661046      0.012706724373056076
-2                        -2.1                     0.0126273105182943
-1.846364360343395        -1.9401710821195468      0.012629973274647655
-2                        -2.1                     0.0126273105182943
-1.764796222180569        -2.1                     0.012548351622240415
-1.846364360343395        -1.9401710821195468      0.012629973274647655
-2                        -1.6286088480525398      0.012947295475048769
-2                        -1.8645293522661046      0.012706724373056076
-1.8245167365948494       -1.7449367782940313      0.01276324563764228
-2                        -1.3926883424495373      0.013353942235885301
-2                        -1.6286088480525398      0.012947295475048769
-1.8168623695316584       -1.512189523512412       0.013075799081911348
-1.764796222180569        -2.1                     0.012548351622240415
-1.529392217779427        -2.1                     0.01231301695581242
-1.6425247983867886       -1.8914043628477542      0.012506100729967667
-2                        -1.1567678368465348      0.013934170281161066
-2                        -1.3926883424495373      0.013353942235885301
-1.8122455777218598       -1.2767049080338484      0.01356066415072624
-1.529392217779427        -2.1                     0.01231301695581242
-1.2939882132423535       -2.1                     0.011926728171691593
-1.3989614082807784       -1.9110406672624995      0.012164387182310794
-2                        -0.920847331243532       0.014696870049478268
-2                        -1.1567678368465348      0.013934170281161066
-1.8109836351205506       -1.0405681798744235      0.01422643337594386
-1.2939882132423535       -2.1                     0.011926728171691593
-1.05858420870528         -2.1                     0.011399209193719994
-1.1696308739542287       -1.909293466203794       0.011709127531721049
-2                        -0.6849268256405294      0.015650525243135704
-2                        -0.920847331243532       0.014696870049478268
-1.810295659913922        -0.8045304929098868      0.015079748757318318
-1.05858420870528         -2.1                     0.011399209193719994
-0.8231802041682066       -2.1                     0.010745036635010597
-0.9374566002124125       -1.908700173002049       0.01111619950067568
-2                        -0.4490063200375265      0.016800840623854
-2                        -0.6849268256405294      0.015650525243135704
-1.8097491300494364       -0.5683692088677957      0.016129524739923833
-0.8231802041682066       -2.1                     0.010745036635010597
-0.587776199631133        -2.1                     0.009984273445501278
-0.702442025043489        -1.9095207699513645      0.010397726654368316
-2                        -0.21308581443452423     0.018148036711449458
-2                        -0.4490063200375265      0.016800840623854
-1.8097640917460813       -0.3318487261805915      0.01738199236452936
-0.587776199631133        -2.1                     0.009984273445501278
-0.3523721950940597       -2.1                     0.009142544641273715
-0.4672480472817225       -1.9100923020549863      0.009583235129064137
-2                        0.02283469116847825      0.0196843064432287
-2                        -0.21308581443452423     0.018148036711449458
-1.8105412062410897       -0.0958658833976639      0.018829547077741267
-0.3523721950940597       -2.1                     0.009142544641273715
-0.11696819055698615      -2.1                     0.008250157761919199
-0.23252005099952355      -1.9100649405128722      0.008703631770657336
-2                        0.2587551967714812       0.021392084721633058
-2                        0.02283469116847825      0.0196843064432287
-1.8110785387248838       0.14021195088646163      0.020462633249339637
-0.11696819055698615      -2.1                     0.008250157761919199
0.11843581398008718       -2.1                     0.0073399977247681335
0.0028064179962684482     -1.9097863682838865      0.007787434104418976
0.3639115504057773        -0.1                     0
0.27                      -0.1                     0
0.3155232914343534        -0.1891591978532564      0.002013714227787897
0.18706786716800006       0                        0.004582947572774588
0.09725799567993655       0                        0.007215236171970411
0.136474273000267         -0.06484323953093968     0.005485348048011207
0.09725799567993655       0                        0.007215236171970411
0                         0                        0.00926789741220348
0.04825893493545653       -0.083540921452322       0.007526964072000108
-2                        0.49467570237448366      0.023243653896872433
-2                        0.2587551967714812       0.021392084721633058
-1.8108872450663813       0.37611999723855494      0.0222563230462371
0.11843581398008718       -2.1                     0.0073399977247681335
0.3538398185171605        -2.1                     0.006444352715188204
0.23790455401201951       -1.9095195768809718      0.006871802036514285
0.4676574669449062        -0.1                     0
0.3639115504057773        -0.1                     0
0.41484073698070734       -0.19607074930896257     0.0013730974168769893
0.27                      -0.1                     0
0.27                      0                        0
0.2093597961748373        -0.058752783995909975    0.0030038374921963875
0.27                      0                        0
0.18706786716800006       0                        0.004582947572774588
0.2093597961748373        -0.058752783995909975    0.0030038374921963875
0                         0                        0.00926789741220348
0                         0.10390640015745226      0.010687377788062787
-0.09240933680645019      0.05644175854491199      0.0114367116272457
-2                        0.7305962079774864       0.02520224270301947
-2                        0.49467570237448366      0.023243653896872433
-1.8102978591166694       0.6121077323603339       0.024179729889937444
0.3538398185171605        -2.1                     0.006444352715188204
0.5892438230542343        -2.1                     0.0055914126249195645
0.47351012803695564       -1.9096142074834344      0.005985701329864661
0.5822677116210757        -0.1                     0
0.4676574669449062        -0.1                     0
0.5254387392722403        -0.19828333020975616     0.0010132107432098906
0                         0.10390640015745226      0.010687377788062787
0                         0.21464725366904303      0.012565333850331928
-0.09413192195342449      0.162719619652995        0.012904900107693233
-2                        0.9665167135804887       0.027224299263522732
-2                        0.7305962079774864       0.02520224270301947
-1.809636460660011        0.8481252817224755       0.026191377139742518
0.5892438230542343        -2.1                     0.0055914126249195645
0.8246478275913076        -2.1                     0.0048024958478403
0.7092119849183914        -1.9101441564387935      0.005156622165973636
0.7088801016846716        -0.1                     0
0.5822677116210757        -0.1                     0
0.6463164295287661        -0.20419523662202613     8.244021007020651E-4
0                         0.21464725366904303      0.012565333850331928
0                         0.33402136525582626      0.0147891433396416
-0.10238192627319108      0.2773266173600838       0.014786822658196403
-2                        1.2024372191834916       0.02926237623394904
-2                        0.9665167135804887       0.027224299263522732
-1.8093966065345832       1.0848785704694899       0.028250578708977455
0.8246478275913076        -2.1                     0.0048024958478403
1.060051832128381         -2.1                     0.004090809287772395
0.944810122475995         -1.9110638723910947      0.004402674414698111
0.8462977796009774        -0.1                     0
0.7088801016846716        -0.1                     0
0.7768427587250946        -0.20990692940404454     6.93023563401924E-4
0.9855914897201027        -0.1                     0
0.8462977796009774        -0.1                     0
0.913331841434306         -0.21558011435769117     5.971376540705161E-4
0                         0.33402136525582626      0.0147891433396416
0                         0.4654409456151904       0.017319235549905
-0.11195765141043862      0.40324858292617355      0.016979047872288752
-2                        1.4383577247864943       0.03126807696843133
-2                        1.2024372191834916       0.02926237623394904
-1.8102250904199269       1.3218538434612288       0.030303018725494
1.060051832128381         -2.1                     0.004090809287772395
1.295455836665455         -2.1                     0.003461860207757162
1.1802724333881178        -1.9121585231134839      0.003732520797366522
1.125026545438824         -0.1                     0
0.9855914897201027        -0.1                     0
1.0526738918134877        -0.21908653224120095     5.15075717079171E-4
0                         0.4654409456151904       0.017319235549905
0                         0.610624405923613        0.02012569227262392
-0.12289197340930254      0.5418004846451476       0.019439457728737182
-2                        1.6742782303894965       0.03319472850335426
-2                        1.4383577247864943       0.03126807696843133
-1.8117366697933595       1.5575821788674828       0.03228685199002302
1.295455836665455         -2.1                     0.003461860207757162
1.530859841202528         -2.1                     0.0029150085347517188
1.415644348200134         -1.9131497033115414      0.0031472807970603593
1.2644616011575456        -0.1                     0
1.125026545438824         -0.1                     0
1.192874707343497         -0.22084913007607143     4.44853935745849E-4
1.4038966568762674        -0.1                     0
1.2644616011575456        -0.1                     0
1.332907164897741         -0.22178949665731593     3.8634498802297236E-4
0                         0.610624405923613        0.02012569227262392
0                         0.7710264798716884       0.023192910112276106
-0.13536872088927018      0.6951252260151842       0.022152441894649814
-2                        1.910198735992499        0.03499968665064219
-2                        1.6742782303894965       0.03319472850335426
-1.8133091131503543       1.7928042318094808       0.03416363098411778
1.530859841202528         -2.1                     0.0029150085347517188
1.7662638457396016        -2.1                     0.002445434331414113
1.6509678419102916        -1.913947536518745       0.002643063923165962
1.5433317125949886        -0.1                     0
1.4038966568762674        -0.1                     0
1.4728399671468908        -0.22170163536203236     3.3572584417210677E-4
1.6827667683137104        -0.1                     0
1.5433317125949886        -0.1                     0
1.6126369874543267        -0.22130472154584246     2.929706536793865E-4
0                         0.7710264798716884       0.023192910112276106
0                         0.9482303952029425       0.026511555063821607
-0.14885945969644046      0.8648426735342333       0.025095920895977036
-2                        2.146119241595502        0.036646360959891815
-2                        1.910198735992499        0.03499968665064219
-1.8142915345256305       2.0277163781428866       0.035895891167709255
1.7662638457396016        -2.1                     0.002445434331414113
2.001667850276675         -2.1                     0.0020459529209806647
1.8862179694928296        -1.9145872085847693      0.0022131312945246114
1.8222018240324316        -0.1                     0
1.6827667683137104        -0.1                     0
1.7524205024856452        -0.22053470949905415     2.561560828916255E-4
0                         0.9482303952029425       0.026511555063821607
0                         1.1439937446136246       0.030067996564792133
-0.16192274258080808      1.0514843059799799       0.02823021305963208
-2                        2.382039747198504        0.03810608333738886
-2                        2.146119241595502        0.036646360959891815
-1.8145440777929016       2.2632242380517997       0.03745724880058913
2.001667850276675         -2.1                     0.0020459529209806647
2.2370718548137485        -2.1                     0.001708404280436238
2.1212403142882224        -1.9149067733046004      0.0018494476706935239
1.9616368797511532        -0.1                     0
1.8222018240324316        -0.1                     0
1.8921889778912155        -0.21910083407876818     2.2358401345004376E-4
0                         1.1439937446136246       0.030067996564792133
0                         1.3588800130833947       0.0338099406055547
-0.1732581259874024       1.2542482820910217       0.031494054276694064
-2                        2.617960252801507        0.03935992273232475
-2                        2.382039747198504        0.03810608333738886
-1.8145535266948256       2.4988131618576177       0.03881891522890608
2.2370718548137485        -2.1                     0.001708404280436238
2.4724758593508214        -2.1                     0.0014245775936782216
2.3561757520121613        -1.9147880629664602      0.0015432222841566712
2.101071935469875         -0.1                     0
1.9616368797511532        -0.1                     0
2.0316898183392325        -0.21925732829813563     1.9838922086317542E-4
0                         1.3588800130833947       0.0338099406055547
0                         1.5858597535302605       0.03753892665507131
-0.1795084219252066       1.473580209319907        0.0348497925872576
0                         1.5858597535302605       0.03753892665507131
0                         1.8143948151476934       0.041010802953704566
-0.18186824464524037      1.6998398195295814       0.03809184178916271
-2                        2.853880758404509        0.04040045581045049
-2                        2.617960252801507        0.03935992273232475
-1.8145862475632197       2.734488951757493        0.039966622500043625
2.4724758593508214        -2.1                     0.0014245775936782216
2.707879863887895         -2.1                     0.001186750333258693
2.5899536735415256        -1.9134352851616074      0.001287309062047624
2.2405069911885964        -0.1                     0
2.101071935469875         -0.1                     0
2.170954403518864         -0.21946306339801872     1.7655150246838173E-4
2.379942046907318         -0.1                     0
2.2405069911885964        -0.1                     0
2.309867120532118         -0.22014465275618314     1.580746147695995E-4
2.519377102626039         -0.1                     0
2.379942046907318         -0.1                     0
2.4488005906732924        -0.2209684430572204      1.4189418242216404E-4
2.658812158344761         -0.1                     0
2.519377102626039         -0.1                     0
2.5880989398843437        -0.22170854871881326     1.27384366405809E-4
2.7982472140634824        -0.1                     0
2.658812158344761         -0.1                     0
2.7277088914998533        -0.22229159769563386     1.1428338270392824E-4
2.937682269782204         -0.1                     0
2.7982472140634824        -0.1                     0
2.8673465975262697        -0.22265964559435705     1.0242107135232666E-4
0                         1.8143948151476934       0.041010802953704566
0                         2.0429298767651267       0.04413773836525832
-0.18216771003371712      1.9273041279334155       0.04107462682807885
0                         2.0429298767651267       0.04413773836525832
0                         2.2714649383825596       0.04684792004100432
-0.18229260576086537      2.1562463098664746       0.04372554961036885
-2                        3.0898012640075114       0.04123339861648356
-2                        2.853880758404509        0.04040045581045049
-1.8147035551189845       2.970305247884012        0.04089870499467367
2.707879863887895         -2.1                     0.001186750333258693
2.9432838684249694        -2.1                     9.879550225966925E-4
2.825796342759402         -1.9132455382417968      0.0010714482561377013
3.077117325500925         -0.1                     0
2.937682269782204         -0.1                     0
3.006845660651237         -0.22280196545492512     9.168471583786709E-5
3.216552381219647         -0.1                     0
3.077117325500925         -0.1                     0
3.146241572668467         -0.2227424114060532      8.19840081213942E-5
0                         2.2714649383825596       0.04684792004100432
0                         2.499999999999993        0.04905916785057512
-0.1823419249881126       2.385524144460483        0.04595732977731252
-2                        3.3257217696105137       0.04187886485840179
-2                        3.0898012640075114       0.04123339861648356
-1.8147743583868332       3.2062665836821345       0.041627284594273554
2.9432838684249694        -2.1                     9.879550225966925E-4
3.178687872962042         -2.1                     8.220700787795685E-4
3.0614391638272775        -1.912865551540289       8.914354405266854E-4
3.355987436938369         -0.1                     0
3.216552381219647         -0.1                     0
3.2856120273994947        -0.22253224234583127     7.324851640766437E-5
3.4954224926570903        -0.1                     0
3.355987436938369         -0.1                     0
3.425086090583705         -0.22232270811302624     6.545791443102144E-5
0                         2.499999999999993        0.04905916785057512
0                         2.7285350616174258       0.05067999371466632
-0.1822236976140133       2.614944241793911        0.04769342178637673
0                         2.7285350616174258       0.05067999371466632
0                         2.957070123234859        0.05161222190201398
-0.18182831952101428      2.844479394520134        0.04885703359056478
-2                        3.561642275213515        0.04237187326092709
-2                        3.3257217696105137       0.04187886485840179
-1.814508241982538        3.4422189006433794       0.04217930593958336
3.178687872962042         -2.1                     8.220700787795685E-4
3.4140918774991156        -2.1                     6.838126205316916E-4
3.2970061712504695        -1.9127564014644418      7.414630032015042E-4
3.6348575483758117        -0.1                     0
3.4954224926570903        -0.1                     0
3.564745989017066         -0.22231573791816542     5.859775403867253E-5
3.774292604094533         -0.1                     0
3.6348575483758117        -0.1                     0
3.704437425395104         -0.22251683930070898     5.2554288636353674E-5
0                         2.957070123234859        0.05161222190201398
0                         3.185605184852292        0.05175585063562023
-0.18103431719503904      3.0739776433646573       0.04937263180155078
-2                        3.797562780816517        0.0427615938756716
-2                        3.561642275213515        0.04237187326092709
-1.8134260535470643       3.6778830759728005       0.04259698063383784
3.4140918774991156        -2.1                     6.838126205316916E-4
3.6494958820361894        -2.1                     5.686772148195064E-4
3.5325985356809597        -1.9130223104015338      6.165801476523262E-4
3.913727659813255         -0.1                     0
3.774292604094533         -0.1                     0
3.844001964580865         -0.2227039137934069      4.714058811159532E-5
4.053162715531976         -0.1                     0
3.913727659813255         -0.1                     0
3.983533451182107         -0.22272860799811336     4.223503467428869E-5
0                         3.185605184852292        0.05175585063562023
0                         3.4141402464697252       0.051016867535184376
-0.17941097912602774      3.302977961818844        0.049177661406871444
0                         3.4141402464697252       0.051016867535184376
0                         3.641119986916597        0.049333331412618926
-0.17613686177319635      3.5289963861416385       0.048245514232548845
0                         3.641119986916597        0.049333331412618926
0                         3.8560062553863665       0.04682745680108252
-0.1690979428154845       3.7473075363988624       0.046633063015131086
0                         3.8560062553863665       0.04682745680108252
0                         4.051769604797049        0.04377459061656605
-0.15879845081525432      3.951390900587333        0.04447221254512479
-2                        4.0334832864195205       0.043108730186210246
-2                        3.797562780816517        0.0427615938756716
-1.812388910890345        3.9139707177051837       0.0429373407428125
3.6494958820361894        -2.1                     5.686772148195064E-4
3.8848998865732622        -2.1                     4.7285236025144126E-4
3.768076711339408         -1.9134476851189879      5.126967437633875E-4
4.192597771250697         -0.1                     0
4.053162715531976         -0.1                     0
4.123173315966267         -0.22265607970849863     3.781056333687778E-5
4.332032826969419         -0.1                     0
4.192597771250697         -0.1                     0
4.262887984957112         -0.2225697145639814      3.3846454716547145E-5
0                         4.051769604797049        0.04377459061656605
0                         4.228973520128305        0.040415154917350225
-0.14640986302166575      4.137549911688174        0.041948026235081724
-2                        4.269403792022521        0.04348055893713799
-2                        4.0334832864195205       0.043108730186210246
-1.8112369623242779       4.150177172422889        0.04326644995476632
3.8848998865732622        -2.1                     4.7285236025144126E-4
4.120303891110336         -2.1                     3.931312920300984E-4
4.003253548477235         -1.9137409163502896      4.263587924431854E-4
4.471467882688141         -0.1                     0
4.332032826969419         -0.1                     0
4.402591687730564         -0.22245830723910032     3.029392060583233E-5
4.610902938406863         -0.1                     0
4.471467882688141         -0.1                     0
4.542291634883714         -0.22231805150883424     2.7109300631092033E-5
0                         4.228973520128305        0.040415154917350225
0                         4.389375594076383        0.03695184125328323
-0.13478616034299182      4.306646857114516        0.03922742427374865
-2                        4.505324297625524        0.04394344305801632
-2                        4.269403792022521        0.04348055893713799
-1.8108990640579306       4.3863985952651126       0.043655402739417246
4.120303891110336         -2.1                     3.931312920300984E-4
4.35570789564741          -2.1                     3.2682610670239107E-4
4.238223236357064         -1.9136704712417378      3.5457343395378844E-4
4.750337994125584         -0.1                     0
4.610902938406863         -0.1                     0
4.681973398034401         -0.222155867764129       2.4256431992315752E-5
0                         4.389375594076383        0.03695184125328323
0                         4.534559054384806        0.033564365447774726
-0.12390885147414508      4.460050095550938        0.03648438601387658
0                         4.534559054384806        0.033564365447774726
0                         4.665978634744171        0.030432718559390073
-0.11431750405086824      4.598908349427916        0.033898901666438254
-2                        4.7412448032285255       0.04455337537675212
-2                        4.505324297625524        0.04394344305801632
-1.810825790900088        4.622746456789798        0.04417072952645051
4.8897730498443055        -0.1                     0
4.750337994125584         -0.1                     0
4.82158565554097          -0.22194589576647897     2.1697179866706323E-5
4.35570789564741          -2.1                     3.2682610670239107E-4
4.591111900184483         -2.1                     2.716896252908895E-4
4.473364488870661         -1.913217936025103       2.9480478315087105E-4
5.029208105563027         -0.1                     0
4.8897730498443055        -0.1                     0
4.961178047977154         -0.2217109037287116      1.940472446414908E-5
0                         4.665978634744171        0.030432718559390073
0                         4.785352746330957        0.027757980424361728
-0.10616172329562268      4.724920711233303        0.031653263009921724
-2                        4.977165308831528        0.04534603760084258
-2                        4.7412448032285255       0.04455337537675212
-1.810934242614844        4.8591477658263225       0.04486298126831825
4.591111900184483         -2.1                     2.716896252908895E-4
4.826515904721557         -2.1                     2.2584657749315533E-4
4.70881662155852          -1.9126859944033898      2.4503908284441894E-4
5.168643161281748         -0.1                     0
5.029208105563027         -0.1                     0
5.100788308544586         -0.22157220136551412     1.7368263653289343E-5
0                         4.785352746330957        0.027757980424361728
0                         4.896093599842548        0.025812336993742774
-0.09875504944445097      4.840263815955695        0.029927788931090982
-2                        5.21308581443453         0.04632868319932352
-2                        4.977165308831528        0.04534603760084258
-1.8109653461710749       5.095612306736077        0.04575673700397823
-2                        5.449006320037531        0.047476231009941874
-2                        5.21308581443453         0.04632868319932352
-1.8104698060615043       5.332418170827913        0.04684485079439838
4.826515904721557         -2.1                     2.2584657749315533E-4
5.061919909258631         -2.1                     1.8773404411327884E-4
4.944317778872884         -1.912532314174615       2.0366969525371467E-4
5.308078217000469         -0.1                     0
5.168643161281748         -0.1                     0
5.2402854346454175        -0.22163605167058242     1.557300727302276E-5
0                         4.896093599842548        0.025812336993742774
0                         5                        0.025025693867247126
-0.09752139268225549      4.944990626336669        0.02913531847044938
-2                        5.6849268256405345       0.04873299659898693
-2                        5.449006320037531        0.047476231009941874
-1.8095149671305624       5.569514327014867        0.04808506539452265
5.447513272719191         -0.1                     0
5.308078217000469         -0.1                     0
5.379471834422474         -0.2218116247760093      1.3979696197700804E-5
5.061919909258631         -2.1                     1.8773404411327884E-4
5.297323913795703         -2.1                     1.5605045384006858E-4
5.179835162781797         -1.9126174191717071      1.6928391756416178E-4
5.586948328437913         -0.1                     0
5.447513272719191         -0.1                     0
5.518295822878883         -0.22178694500657162     1.2532533148935454E-5
5.726383384156634         -0.1                     0
5.586948328437913         -0.1                     0
5.65697084260933          -0.22167894489010276     1.1228921495577011E-5
0                         5                        0.025025693867247126
0.09725799567993704       5                        0.019526656954282424
0.04549028241684818       5.084242024656803        0.02314076242238907
-2                        5.920847331243536        0.05001978546267984
-2                        5.6849268256405345       0.04873299659898693
-1.8068187192012128       5.80682498208139         0.04940502105740576
-2                        6.156767836846538        0.05124444020593697
-2                        5.920847331243536        0.05001978546267984
-1.8026107942666219       6.047812453281348        0.050732400953036584
5.297323913795703         -2.1                     1.5605045384006858E-4
5.532727918332776         -2.1                     1.297125060727459E-4
5.415313699135471         -1.9127954095606348      1.4070749564377898E-4
5.865818439875356         -0.1                     0
5.726383384156634         -0.1                     0
5.795592355771693         -0.22128094252934744     1.0037464871676802E-5
6.0052534955940775        -0.1                     0
5.865818439875356         -0.1                     0
5.934404023592075         -0.2209415381826476      8.975374656064007E-6
0.09725799567993704       5                        0.019526656954282424
0.18706786716800028       5                        0.012233387492631547
0.1341775722796173        5.076781767364179        0.017050036357794965
0.18706786716800028       5                        0.012233387492631547
0.27                      5                        0
0.20588771972661823       5.079897859618956        0.010077555390774035
-2                        6.39268834244954         0.05231379477573793
-2                        6.156767836846538        0.05124444020593697
-1.8062875574423924       6.274961294297851        0.051872896393021055
-2                        6.628608848052542        0.053144264124623614