% Model:                CdZnTE_280211_2D_SE_WP_Cathode.mph
% Version:              COMSOL 4.1.0.88
% Date:                 Jul 11 2011, 14:35
% Dimension:            2
% Nodes:                56934
% Expressions:          1
% Description:          Electric potential
% x                       y                        V (V)
-2                        -1.8645293522661046      3.1632253101709894E-6
-2                        -2.1                     3.1440296337968125E-6
-1.846364360343395        -1.9401710821195468      3.14467758734639E-6
-2                        -2.1                     3.1440296337968125E-6
-1.764796222180569        -2.1                     3.124933872485032E-6
-1.846364360343395        -1.9401710821195468      3.14467758734639E-6
-2                        -1.6286088480525398      3.2213093644030044E-6
-2                        -1.8645293522661046      3.1632253101709894E-6
-1.8245167365948494       -1.7449367782940313      3.1769077141292863E-6
-2                        -1.3926883424495373      3.319262390130502E-6
-2                        -1.6286088480525398      3.2213093644030044E-6
-1.8168623695316584       -1.512189523512412       3.252381114385766E-6
-1.764796222180569        -2.1                     3.124933872485032E-6
-1.529392217779427        -2.1                     3.067956679824635E-6
-1.6425247983867886       -1.8914043628477542      3.114747970455526E-6
-2                        -1.1567678368465348      3.458510015656879E-6
-2                        -1.3926883424495373      3.319262390130502E-6
-1.8122455777218598       -1.2767049080338484      3.369137801589601E-6
-1.529392217779427        -2.1                     3.067956679824635E-6
-1.2939882132423535       -2.1                     2.97423841984518E-6
-1.3989614082807784       -1.9110406672624995      3.032006644474137E-6
-2                        -0.920847331243532       3.6405721964706554E-6
-2                        -1.1567678368465348      3.458510015656879E-6
-1.8109836351205506       -1.0405681798744235      3.5287706640152037E-6
-1.2939882132423535       -2.1                     2.97423841984518E-6
-1.05858420870528         -2.1                     2.845880075480432E-6
-1.1696308739542287       -1.909293466203794       2.9214852549880626E-6
-2                        -0.6849268256405294      3.866547886885279E-6
-2                        -0.920847331243532       3.6405721964706554E-6
-1.810295659913922        -0.8045304929098868      3.732141459190395E-6
-1.05858420870528         -2.1                     2.845880075480432E-6
-0.8231802041682066       -2.1                     2.6861333894919227E-6
-0.9374566002124125       -1.908700173002049       2.7770514275476845E-6
-2                        -0.4490063200375265      4.136447472817799E-6
-2                        -0.6849268256405294      3.866547886885279E-6
-1.8097491300494364       -0.5683692088677957      3.980287610761371E-6
-0.8231802041682066       -2.1                     2.6861333894919227E-6
-0.587776199631133        -2.1                     2.4996181111510517E-6
-0.702442025043489        -1.9095207699513645      2.6013332186192882E-6
-2                        -0.21308581443452423     4.4484525375612465E-6
-2                        -0.4490063200375265      4.136447472817799E-6
-1.8097640917460813       -0.3318487261805915      4.273100418645886E-6
-0.587776199631133        -2.1                     2.4996181111510517E-6
-0.3523721950940597       -2.1                     2.2924053093171536E-6
-0.4672480472817225       -1.9100923020549863      2.4012777462607694E-6
-2                        0.02283469116847825      4.798252503355345E-6
-2                        -0.21308581443452423     4.4484525375612465E-6
-1.8105412062410897       -0.0958658833976639      4.606623557692531E-6
-0.3523721950940597       -2.1                     2.2924053093171536E-6
-0.11696819055698615      -2.1                     2.0718511442635562E-6
-0.23252005099952355      -1.9100649405128722      2.184310417131197E-6
-2                        0.2587551967714812       5.178649312027819E-6
-2                        0.02283469116847825      4.798252503355345E-6
-1.8110785387248838       0.14021195088646163      4.9758173307155445E-6
-0.11696819055698615      -2.1                     2.0718511442635562E-6
0.11843581398008718       -2.1                     1.846098475403271E-6
0.0028064179962684482     -1.9097863682838865      1.957420788039768E-6
0.3639115504057773        -0.1                     0
0.27                      -0.1                     0
0.3155232914343534        -0.1891591978532564      5.226634721298756E-7
0.18706786716800006       0                        1.2478549429038726E-6
0.09725799567993655       0                        1.941411099486116E-6
0.136474273000267         -0.06484323953093968     1.4640671499600738E-6
0.09725799567993655       0                        1.941411099486116E-6
0                         0                        2.4680458703216185E-6
0.04825893493545653       -0.083540921452322       1.9917546662502248E-6
-2                        0.49467570237448366      5.579579510076039E-6
-2                        0.2587551967714812       5.178649312027819E-6
-1.8108872450663813       0.37611999723855494      5.371486922511614E-6
0.11843581398008718       -2.1                     1.846098475403271E-6
0.3538398185171605        -2.1                     1.6232768002563263E-6
0.23790455401201951       -1.9095195768809718      1.72989048154466E-6
0.4676574669449062        -0.1                     0
0.3639115504057773        -0.1                     0
0.41484073698070734       -0.19607074930896257     3.5394991757472846E-7
0.27                      -0.1                     0
0.27                      0                        0
0.2093597961748373        -0.058752783995909975    8.062566014612851E-7
0.27                      0                        0
0.18706786716800006       0                        1.2478549429038726E-6
0.2093597961748373        -0.058752783995909975    8.062566014612851E-7
0                         0                        2.4680458703216185E-6
0                         0.10390640015745226      2.8788768821023943E-6
-0.09240933680645019      0.05644175854491199      3.0335719547955767E-6
-2                        0.7305962079774864       5.988593510052215E-6
-2                        0.49467570237448366      5.579579510076039E-6
-1.8102978591166694       0.6121077323603339       5.7825588834985775E-6
0.3538398185171605        -2.1                     1.6232768002563263E-6
0.5892438230542343        -2.1                     1.4105896064466448E-6
0.47351012803695564       -1.9096142074834344      1.5090930592033713E-6
0.5822677116210757        -0.1                     0
0.4676574669449062        -0.1                     0
0.5254387392722403        -0.19828333020975616     2.599450252127877E-7
0                         0.10390640015745226      2.8788768821023943E-6
0                         0.21464725366904303      3.4191745781968303E-6
-0.09413192195342449      0.162719619652995        3.450799886301963E-6
-2                        0.9665167135804887       6.391686747193773E-6
-2                        0.7305962079774864       5.988593510052215E-6
-1.809636460660011        0.8481252817224755       6.195336363151595E-6
0.5892438230542343        -2.1                     1.4105896064466448E-6
0.8246478275913076        -2.1                     1.2135695609831713E-6
0.7092119849183914        -1.9101441564387935      1.3021024586295236E-6
0.7088801016846716        -0.1                     0
0.5822677116210757        -0.1                     0
0.6463164295287661        -0.20419523662202613     2.1079495866211868E-7
0                         0.21464725366904303      3.4191745781968303E-6
0                         0.33402136525582626      4.056195470199365E-6
-0.10238192627319108      0.2773266173600838       3.978021466889463E-6
-2                        1.2024372191834916       6.774301800797923E-6
-2                        0.9665167135804887       6.391686747193773E-6
-1.8093966065345832       1.0848785704694899       6.596182502604163E-6
0.8246478275913076        -2.1                     1.2135695609831713E-6
1.060051832128381         -2.1                     1.0357223126313904E-6
0.944810122475995         -1.9110638723910947      1.113668444496538E-6
0.8462977796009774        -0.1                     0
0.7088801016846716        -0.1                     0
0.7768427587250946        -0.20990692940404454     1.7679626859801E-7
0.9855914897201027        -0.1                     0
0.8462977796009774        -0.1                     0
0.913331841434306         -0.21558011435769117     1.5211844321890593E-7
0                         0.33402136525582626      4.056195470199365E-6
0                         0.4654409456151904       4.7756745573255095E-6
-0.11195765141043862      0.40324858292617355      4.586131346145796E-6
-2                        1.4383577247864943       7.12231827741181E-6
-2                        1.2024372191834916       6.774301800797923E-6
-1.8102250904199269       1.3218538434612288       6.969062111144753E-6
1.060051832128381         -2.1                     1.0357223126313904E-6
1.295455836665455         -2.1                     8.786010866218772E-7
1.1802724333881178        -1.9121585231134839      9.461555754771789E-7
1.125026545438824         -0.1                     0
0.9855914897201027        -0.1                     0
1.0526738918134877        -0.21908653224120095     1.3112191580420856E-7
0                         0.4654409456151904       4.7756745573255095E-6
0                         0.610624405923613        5.563255384740814E-6
-0.12289197340930254      0.5418004846451476       5.258345617640269E-6
-2                        1.6742782303894965       7.422907170489113E-6
-2                        1.4383577247864943       7.12231827741181E-6
-1.8117366697933595       1.5575821788674828       7.297921180732857E-6
1.295455836665455         -2.1                     8.786010866218772E-7
1.530859841202528         -2.1                     7.421856338730653E-7
1.415644348200134         -1.9131497033115414      8.000013388766458E-7
1.2644616011575456        -0.1                     0
1.125026545438824         -0.1                     0
1.192874707343497         -0.22084913007607143     1.132361797057498E-7
1.4038966568762674        -0.1                     0
1.2644616011575456        -0.1                     0
1.332907164897741         -0.22178949665731593     9.838901420319237E-8
0                         0.610624405923613        5.563255384740814E-6
0                         0.7710264798716884       6.405462677092381E-6
-0.13536872088927018      0.6951252260151842       5.9827075171380845E-6
-2                        1.910198735992499        7.665195590380618E-6
-2                        1.6742782303894965       7.422907170489113E-6
-1.8133091131503543       1.7928042318094808       7.57230482615039E-6
1.530859841202528         -2.1                     7.421856338730653E-7
1.7662638457396016        -2.1                     6.253783554573382E-7
1.6509678419102916        -1.913947536518745       6.74351666541806E-7
1.5433317125949886        -0.1                     0
1.4038966568762674        -0.1                     0
1.4728399671468908        -0.22170163536203236     8.558427207547888E-8
1.6827667683137104        -0.1                     0
1.5433317125949886        -0.1                     0
1.6126369874543267        -0.22130472154584246     7.480259775363598E-8
0                         0.7710264798716884       6.405462677092381E-6
0                         0.9482303952029425       7.286800539201834E-6
-0.14885945969644046      0.8648426735342333       6.743310751025002E-6
-2                        2.146119241595502        7.84074879064099E-6
-2                        1.910198735992499        7.665195590380618E-6
-1.8142915345256305       2.0277163781428866       7.78319000442571E-6
1.7662638457396016        -2.1                     6.253783554573382E-7
2.001667850276675         -2.1                     5.264684734636245E-7
1.8862179694928296        -1.9145872085847693      5.676121402197563E-7
1.8222018240324316        -0.1                     0
1.6827667683137104        -0.1                     0
1.7524205024856452        -0.22053470949905415     6.554707230214447E-8
0                         0.9482303952029425       7.286800539201834E-6
0                         1.1439937446136246       8.186066395111537E-6
-0.16192274258080808      1.0514843059799799       7.518101679964755E-6
-2                        2.382039747198504        7.943894541195895E-6
-2                        2.146119241595502        7.84074879064099E-6
-1.8145440777929016       2.2632242380517997       7.924269376928782E-6
2.001667850276675         -2.1                     5.264684734636245E-7
2.2370718548137485        -2.1                     4.4349080877984855E-7
2.1212403142882224        -1.9149067733046004      4.778472755799646E-7
1.9616368797511532        -0.1                     0
1.8222018240324316        -0.1                     0
1.8921889778912155        -0.21910083407876818     5.737984907943498E-8
0                         1.1439937446136246       8.186066395111537E-6
0                         1.3588800130833947       9.06759112895902E-6
-0.1732581259874024       1.2542482820910217       8.27814104882399E-6
-2                        2.617960252801507        7.97192160563781E-6
-2                        2.382039747198504        7.943894541195895E-6
-1.8145535266948256       2.4988131618576177       7.990608421286376E-6
2.2370718548137485        -2.1                     4.4349080877984855E-7
2.4724758593508214        -2.1                     3.7446699340099036E-7
2.3561757520121613        -1.9147880629664602      4.029290331029281E-7
2.101071935469875         -0.1                     0
1.9616368797511532        -0.1                     0
2.0316898183392325        -0.21925732829813563     5.110622724132028E-8
0                         1.3588800130833947       9.06759112895902E-6
0                         1.5858597535302605       9.862238718439198E-6
-0.1795084219252066       1.473580209319907        9.002380273913957E-6
0                         1.5858597535302605       9.862238718439198E-6
0                         1.8143948151476934       1.0505504754088815E-5
-0.18186824464524037      1.6998398195295814       9.630737121955308E-6
-2                        2.853880758404509        7.925173953596103E-6
-2                        2.617960252801507        7.97192160563781E-6
-1.8145862475632197       2.734488951757493        7.980853625599307E-6
2.4724758593508214        -2.1                     3.7446699340099036E-7
2.707879863887895         -2.1                     3.1754844846331216E-7
2.5899536735415256        -1.9134352851616074      3.411314714938467E-7
2.2405069911885964        -0.1                     0
2.101071935469875         -0.1                     0
2.170954403518864         -0.21946306339801872     4.569858555231292E-8
2.379942046907318         -0.1                     0
2.2405069911885964        -0.1                     0
2.309867120532118         -0.22014465275618314     4.1161819315367684E-8
2.519377102626039         -0.1                     0
2.379942046907318         -0.1                     0
2.4488005906732924        -0.2209684430572204      3.722561816417339E-8
2.658812158344761         -0.1                     0
2.519377102626039         -0.1                     0
2.5880989398843437        -0.22170854871881326     3.3731218418301764E-8
2.7982472140634824        -0.1                     0
2.658812158344761         -0.1                     0
2.7277088914998533        -0.22229159769563386     3.0612930771982144E-8
2.937682269782204         -0.1                     0
2.7982472140634824        -0.1                     0
2.8673465975262697        -0.22265964559435705     2.7827958102151494E-8
0                         1.8143948151476934       1.0505504754088815E-5
0                         2.0429298767651267       1.097897556221262E-5
-0.18216771003371712      1.9273041279334155       1.0126010881744401E-5
0                         2.0429298767651267       1.097897556221262E-5
0                         2.2714649383825596       1.1273529774023243E-5
-0.18229260576086537      2.1562463098664746       1.0471093040045308E-5
-2                        3.0898012640075114       7.807053278142037E-6
-2                        2.853880758404509        7.925173953596103E-6
-1.8147035551189845       2.970305247884012        7.896750932380216E-6
2.707879863887895         -2.1                     3.1754844846331216E-7
2.9432838684249694        -2.1                     2.7108972338883945E-7
2.825796342759402         -1.9132455382417968      2.9001408355843403E-7
3.077117325500925         -0.1                     0
2.937682269782204         -0.1                     0
3.006845660651237         -0.22280196545492512     2.5348684697494163E-8
3.216552381219647         -0.1                     0
3.077117325500925         -0.1                     0
3.146241572668467         -0.2227424114060532      2.315415488342481E-8
0                         2.2714649383825596       1.1273529774023243E-5
0                         2.499999999999993        1.138357834271835E-5
-0.1823419249881126       2.385524144460483        1.0654934122779067E-5
-2                        3.3257217696105137       7.6239264155309895E-6
-2                        3.0898012640075114       7.807053278142037E-6
-1.8147743583868332       3.2062665836821345       7.743124379547149E-6
2.9432838684249694        -2.1                     2.7108972338883945E-7
3.178687872962042         -2.1                     2.3367705696731718E-7
3.0614391638272775        -1.912865551540289       2.4860754334206407E-7
3.355987436938369         -0.1                     0
3.216552381219647         -0.1                     0
3.2856120273994947        -0.22253224234583127     2.1229457303346898E-8
3.4954224926570903        -0.1                     0
3.355987436938369         -0.1                     0
3.425086090583705         -0.22232270811302624     1.957561818837302E-8
0                         2.499999999999993        1.138357834271835E-5
0                         2.7285350616174258       1.1307198119962864E-5
-0.1822236976140133       2.614944241793911        1.0673560841529255E-5
0                         2.7285350616174258       1.1307198119962864E-5
0                         2.957070123234859        1.1046172139358632E-5
-0.18182831952101428      2.844479394520134        1.0527033802500113E-5
-2                        3.561642275213515        7.384920595741446E-6
-2                        3.3257217696105137       7.6239264155309895E-6
-1.814508241982538        3.4422189006433794       7.527908814840028E-6
3.178687872962042         -2.1                     2.3367705696731718E-7
3.4140918774991156        -2.1                     2.0413210227429557E-7
3.2970061712504695        -1.9127564014644418      2.1558920665181532E-7
3.6348575483758117        -0.1                     0
3.4954224926570903        -0.1                     0
3.564745989017066         -0.22231573791816542     1.819846575997203E-8
3.774292604094533         -0.1                     0
3.6348575483758117        -0.1                     0
3.704437425395104         -0.22251683930070898     1.707513433260191E-8
0                         2.957070123234859        1.1046172139358632E-5
0                         3.185605184852292        1.0605940264199084E-5
-0.18103431719503904      3.0739776433646573       1.0219237530856199E-5
-2                        3.797562780816517        7.101576622420709E-6
-2                        3.561642275213515        7.384920595741446E-6
-1.8134260535470643       3.6778830759728005       7.2619800499899605E-6
3.4140918774991156        -2.1                     2.0413210227429557E-7
3.6494958820361894        -2.1                     1.815024499413283E-7
3.5325985356809597        -1.9130223104015338      1.8987976458120695E-7
3.913727659813255         -0.1                     0
3.774292604094533         -0.1                     0
3.844001964580865         -0.2227039137934069      1.6157225383580587E-8
4.053162715531976         -0.1                     0
3.913727659813255         -0.1                     0
3.983533451182107         -0.22272860799811336     1.5413887770197995E-8
0                         3.185605184852292        1.0605940264199084E-5
0                         3.4141402464697252       9.995466631488351E-6
-0.17941097912602774      3.302977961818844        9.759424609957083E-6
0                         3.4141402464697252       9.995466631488351E-6
0                         3.641119986916597        9.232751576370816E-6
-0.17613686177319635      3.5289963861416385       9.16752068474355E-6
0                         3.641119986916597        9.232751576370816E-6
0                         3.8560062553863665       8.380707845786521E-6
-0.1690979428154845       3.7473075363988624       8.480128383375269E-6
0                         3.8560062553863665       8.380707845786521E-6
0                         4.051769604797049        7.507572113849621E-6
-0.15879845081525432      3.951390900587333        7.74224553577388E-6
-2                        4.0334832864195205       6.787317899060024E-6
-2                        3.797562780816517        7.101576622420709E-6
-1.812388910890345        3.9139707177051837       6.957049949680702E-6
3.6494958820361894        -2.1                     1.815024499413283E-7
3.8848998865732622        -2.1                     1.6504728471518473E-7
3.768076711339408         -1.9134476851189879      1.706429217141872E-7
4.192597771250697         -0.1                     0
4.053162715531976         -0.1                     0
4.123173315966267         -0.22265607970849863     1.4845637076920059E-8
4.332032826969419         -0.1                     0
4.192597771250697         -0.1                     0
4.262887984957112         -0.2225697145639814      1.4456450898344756E-8
0                         4.051769604797049        7.507572113849621E-6
0                         4.228973520128305        6.649252269455286E-6
-0.14640986302166575      4.137549911688174        6.994958358749613E-6
-2                        4.269403792022521        6.456706760974246E-6
-2                        4.0334832864195205       6.787317899060024E-6
-1.8112369623242779       4.150177172422889        6.627775045418413E-6
3.8848998865732622        -2.1                     1.6504728471518473E-7
4.120303891110336         -2.1                     1.5422269259451203E-7
4.003253548477235         -1.9137409163502896      1.5723660211487374E-7
4.471467882688141         -0.1                     0
4.332032826969419         -0.1                     0
4.402591687730564         -0.22245830723910032     1.4240132144960287E-8
4.610902938406863         -0.1                     0
4.471467882688141         -0.1                     0
4.542291634883714         -0.22231805150883424     1.4193092574041006E-8
0                         4.228973520128305        6.649252269455286E-6
0                         4.389375594076383        5.827653476477388E-6
-0.13478616034299182      4.306646857114516        6.261272706242364E-6
-2                        4.505324297625524        6.124479038733053E-6
-2                        4.269403792022521        6.456706760974246E-6
-1.8108990640579306       4.3863985952651126       6.289452855491395E-6
4.120303891110336         -2.1                     1.5422269259451203E-7
4.35570789564741          -2.1                     1.4866921868001252E-7
4.238223236357064         -1.9136704712417378      1.4918915571314243E-7
4.750337994125584         -0.1                     0
4.610902938406863         -0.1                     0
4.681973398034401         -0.222155867764129       1.43149549329806E-8
0                         4.389375594076383        5.827653476477388E-6
0                         4.534559054384806        5.0590880027325385E-6
-0.12390885147414508      4.460050095550938        5.5618163063254024E-6
0                         4.534559054384806        5.0590880027325385E-6
0                         4.665978634744171        4.358750695256201E-6
-0.11431750405086824      4.598908349427916        4.9156171434567575E-6
-2                        4.7412448032285255       5.804420256410381E-6
-2                        4.505324297625524        6.124479038733053E-6
-1.810825790900088        4.622746456789798        5.956861921794333E-6
4.8897730498443055        -0.1                     0
4.750337994125584         -0.1                     0
4.82158565554097          -0.22194589576647897     1.4603190775197873E-8
4.35570789564741          -2.1                     1.4866921868001252E-7
4.591111900184483         -2.1                     1.4820314318556576E-7
4.473364488870661         -1.913217936025103       1.462196162693961E-7
5.029208105563027         -0.1                     0
4.8897730498443055        -0.1                     0
4.961178047977154         -0.2217109037287116      1.506292687422281E-8
0                         4.665978634744171        4.358750695256201E-6
0                         4.785352746330957        3.743209234260062E-6
-0.10616172329562268      4.724920711233303        4.3392568354627116E-6
-2                        4.977165308831528        5.50822785268562E-6
-2                        4.7412448032285255       5.804420256410381E-6
-1.810934242614844        4.8591477658263225       5.643449258380165E-6
4.591111900184483         -2.1                     1.4820314318556576E-7
4.826515904721557         -2.1                     1.5281230254260564E-7
4.70881662155852          -1.9126859944033898      1.4824977173281178E-7
5.168643161281748         -0.1                     0
5.029208105563027         -0.1                     0
5.100788308544586         -0.22157220136551412     1.5714392909941257E-8
0                         4.785352746330957        3.743209234260062E-6
0                         4.896093599842548        3.232352375776181E-6
-0.09875504944445097      4.840263815955695        3.846976730095984E-6
-2                        5.21308581443453         5.2445819754447635E-6
-2                        4.977165308831528        5.50822785268562E-6
-1.8109653461710749       5.095612306736077        5.359800429764714E-6
-2                        5.449006320037531        5.018649035563463E-6
-2                        5.21308581443453         5.2445819754447635E-6
-1.8104698060615043       5.332418170827913        5.112678599721668E-6
4.826515904721557         -2.1                     1.5281230254260564E-7
5.061919909258631         -2.1                     1.6265691206833258E-7
4.944317778872884         -1.912532314174615       1.553687373702098E-7
5.308078217000469         -0.1                     0
5.168643161281748         -0.1                     0
5.2402854346454175        -0.22163605167058242     1.658015463203582E-8
0                         4.896093599842548        3.232352375776181E-6
0                         5                        2.866565119243302E-6
-0.09752139268225549      4.944990626336669        3.4844214913732635E-6
-2                        5.6849268256405345       4.8321423130216946E-6
-2                        5.449006320037531        5.018649035563463E-6
-1.8095149671305624       5.569514327014867        4.905602036724733E-6
5.447513272719191         -0.1                     0
5.308078217000469         -0.1                     0
5.379471834422474         -0.2218116247760093      1.7659819895596293E-8
5.061919909258631         -2.1                     1.6265691206833258E-7
5.297323913795703         -2.1                     1.7807572986566096E-7
5.179835162781797         -1.9126174191717071      1.678215044421536E-7
5.586948328437913         -0.1                     0
5.447513272719191         -0.1                     0
5.518295822878883         -0.22178694500657162     1.8919535895904664E-8
5.726383384156634         -0.1                     0
5.586948328437913         -0.1                     0
5.65697084260933          -0.22167894489010276     2.0388242308874225E-8
0                         5                        2.866565119243302E-6
0.09725799567993704       5                        2.2470964121977307E-6
0.04549028241684818       5.084242024656803        2.419870231062299E-6
-2                        5.920847331243536        4.6839011162516E-6
-2                        5.6849268256405345       4.8321423130216946E-6
-1.8068187192012128       5.80682498208139         4.73851633935615E-6
-2                        6.156767836846538        4.570799989347254E-6
-2                        5.920847331243536        4.6839011162516E-6
-1.8026107942666219       6.047812453281348        4.607344057466329E-6
5.297323913795703         -2.1                     1.7807572986566096E-7
5.532727918332776         -2.1                     1.9959804433470278E-7
5.415313699135471         -1.9127954095606348      1.8603043843574597E-7
5.865818439875356         -0.1                     0
5.726383384156634         -0.1                     0
5.795592355771693         -0.22128094252934744     2.2042974351453755E-8
6.0052534955940775        -0.1                     0
5.865818439875356         -0.1                     0
5.934404023592075         -0.2209415381826476      2.3961620176144082E-8
0.09725799567993704       5                        2.2470964121977307E-6
0.18706786716800028       5                        1.4336614941306188E-6
0.1341775722796173        5.076781767364179        1.7665628572408142E-6
0.18706786716800028       5                        1.4336614941306188E-6
0.27                      5                        0
0.20588771972661823       5.079897859618956        1.0133197619494264E-6
-2                        6.39268834244954         4.488767533759907E-6