% Model:                CdZnTE_280211_2D_SE_WP_Cathode.mph
% Version:              COMSOL 4.1.0.88
% Date:                 Jul 11 2011, 14:50
% Dimension:            2
% Nodes:                56934
% Expressions:          1
% Description:          Electric potential
% x                       y                        V (V)
-2                        -1.8645293522661046      1.1620338913533424E-6
-2                        -2.1                     1.1551119188552106E-6
-1.846364360343395        -1.9401710821195468      1.1553452994478861E-6
-2                        -2.1                     1.1551119188552106E-6
-1.764796222180569        -2.1                     1.1482266106869548E-6
-1.846364360343395        -1.9401710821195468      1.1553452994478861E-6
-2                        -1.6286088480525398      1.1829829996293874E-6
-2                        -1.8645293522661046      1.1620338913533424E-6
-1.8245167365948494       -1.7449367782940313      1.1669665683500718E-6
-2                        -1.3926883424495373      1.2183240903049818E-6
-2                        -1.6286088480525398      1.1829829996293874E-6
-1.8168623695316584       -1.512189523512412       1.1941873495212453E-6
-1.764796222180569        -2.1                     1.1482266106869548E-6
-1.529392217779427        -2.1                     1.1276867042115739E-6
-1.6425247983867886       -1.8914043628477542      1.1445517631141164E-6
-2                        -1.1567678368465348      1.2685881865816183E-6
-2                        -1.3926883424495373      1.2183240903049818E-6
-1.8122455777218598       -1.2767049080338484      1.2363160380738696E-6
-1.529392217779427        -2.1                     1.1276867042115739E-6
-1.2939882132423535       -2.1                     1.093916067292412E-6
-1.3989614082807784       -1.9110406672624995      1.1147240419911024E-6
-2                        -0.920847331243532       1.3343430679693406E-6
-2                        -1.1567678368465348      1.2685881865816183E-6
-1.8109836351205506       -1.0405681798744235      1.2939474775032513E-6
-1.2939882132423535       -2.1                     1.093916067292412E-6
-1.05858420870528         -2.1                     1.0476953425883436E-6
-1.1696308739542287       -1.909293466203794       1.074902299884609E-6
-2                        -0.6849268256405294      1.416003275701397E-6
-2                        -0.920847331243532       1.3343430679693406E-6
-1.810295659913922        -0.8045304929098868      1.3674133970201175E-6
-1.05858420870528         -2.1                     1.0476953425883436E-6
-0.8231802041682066       -2.1                     9.902324534765392E-7
-0.9374566002124125       -1.908700173002049       1.022903952921182E-6
-2                        -0.4490063200375265      1.5135841547223553E-6
-2                        -0.6849268256405294      1.416003275701397E-6
-1.8097491300494364       -0.5683692088677957      1.4571055827082863E-6
-0.8231802041682066       -2.1                     9.902324534765392E-7
-0.587776199631133        -2.1                     9.232436579667673E-7
-0.702442025043489        -1.9095207699513645      9.597202856903203E-7
-2                        -0.21308581443452423     1.626429231425525E-6
-2                        -0.4490063200375265      1.5135841547223553E-6
-1.8097640917460813       -0.3318487261805915      1.56299358977862E-6
-0.587776199631133        -2.1                     9.232436579667673E-7
-0.3523721950940597       -2.1                     8.48985876178345E-7
-0.4672480472817225       -1.9100923020549863      8.87913903659236E-7
-2                        0.02283469116847825      1.7529658808328872E-6
-2                        -0.21308581443452423     1.626429231425525E-6
-1.8105412062410897       -0.0958658833976639      1.6836421060259926E-6
-0.3523721950940597       -2.1                     8.48985876178345E-7
-0.11696819055698615      -2.1                     7.701979436973848E-7
-0.23252005099952355      -1.9100649405128722      8.102372004632366E-7
-2                        0.2587551967714812       1.8905594757388408E-6
-2                        0.02283469116847825      1.7529658808328872E-6
-1.8110785387248838       0.14021195088646163      1.8172065570599628E-6
-0.11696819055698615      -2.1                     7.701979436973848E-7
0.11843581398008718       -2.1                     6.899204444104034E-7
0.0028064179962684482     -1.9097863682838865      7.293090168728728E-7
0.3639115504057773        -0.1                     0
0.27                      -0.1                     0
0.3155232914343534        -0.1891591978532564      1.926233386700763E-7
0.18706786716800006       0                        4.5687037841220285E-7
0.09725799567993655       0                        7.108103541785487E-7
0.136474273000267         -0.06484323953093968     5.364368059291587E-7
0.09725799567993655       0                        7.108103541785487E-7
0                         0                        9.035486163960752E-7
0.04825893493545653       -0.083540921452322       7.297676912330932E-7
-2                        0.49467570237448366      2.0355208296847206E-6
-2                        0.2587551967714812       1.8905594757388408E-6
-1.8108872450663813       0.37611999723855494      1.9603208037233724E-6
0.11843581398008718       -2.1                     6.899204444104034E-7
0.3538398185171605        -2.1                     6.112052198182834E-7
0.23790455401201951       -1.9095195768809718      6.485873569960795E-7
0.4676574669449062        -0.1                     0
0.3639115504057773        -0.1                     0
0.41484073698070734       -0.19607074930896257     1.3097495896092092E-7
0.27                      -0.1                     0
0.27                      0                        0
0.2093597961748373        -0.058752783995909975    2.954418974335459E-7
0.27                      0                        0
0.18706786716800006       0                        4.5687037841220285E-7
0.2093597961748373        -0.058752783995909975    2.954418974335459E-7
0                         0                        9.035486163960752E-7
0                         0.10390640015745226      1.0533331527913601E-6
-0.09240933680645019      0.05644175854491199      1.1101029506636997E-6
-2                        0.7305962079774864       2.183281503181983E-6
-2                        0.49467570237448366      2.0355208296847206E-6
-1.8102978591166694       0.6121077323603339       2.1089211580976906E-6
0.3538398185171605        -2.1                     6.112052198182834E-7
0.5892438230542343        -2.1                     5.367837935149699E-7
0.47351012803695564       -1.9096142074834344      5.708652288703008E-7
0.5822677116210757        -0.1                     0
0.4676574669449062        -0.1                     0
0.5254387392722403        -0.19828333020975616     9.668689390659717E-8
0                         0.10390640015745226      1.0533331527913601E-6
0                         0.21464725366904303      1.250529771568498E-6
-0.09413192195342449      0.162719619652995        1.26220693871081E-6
-2                        0.9665167135804887       2.3286983086275646E-6
-2                        0.7305962079774864       2.183281503181983E-6
-1.809636460660011        0.8481252817224755       2.2579798364038174E-6
0.5892438230542343        -2.1                     5.367837935149699E-7
0.8246478275913076        -2.1                     4.687975808396164E-7
0.7092119849183914        -1.9101441564387935      4.988337760155616E-7
0.7088801016846716        -0.1                     0
0.5822677116210757        -0.1                     0
0.6463164295287661        -0.20419523662202613     7.892853741926911E-8
0                         0.21464725366904303      1.250529771568498E-6
0                         0.33402136525582626      1.4831247995879867E-6
-0.10238192627319108      0.2773266173600838       1.4545493180722212E-6
-2                        1.2024372191834916       2.4664205937495546E-6
-2                        0.9665167135804887       2.3286983086275646E-6
-1.8093966065345832       1.0848785704694899       2.4024781379994642E-6
0.8246478275913076        -2.1                     4.687975808396164E-7
1.060051832128381         -2.1                     4.0867096754428403E-7
0.944810122475995         -1.9110638723910947      4.3435651264143474E-7
0.8462977796009774        -0.1                     0
0.7088801016846716        -0.1                     0
0.7768427587250946        -0.20990692940404454     6.676914890892357E-8
0.9855914897201027        -0.1                     0
0.8462977796009774        -0.1                     0
0.913331841434306         -0.21558011435769117     5.807839490444467E-8
0                         0.33402136525582626      1.4831247995879867E-6
0                         0.4654409456151904       1.7458654554312624E-6
-0.11195765141043862      0.40324858292617355      1.676453592194448E-6
-2                        1.4383577247864943       2.5912530445314865E-6
-2                        1.2024372191834916       2.4664205937495546E-6
-1.8102250904199269       1.3218538434612288       2.5365247776652137E-6
1.060051832128381         -2.1                     4.0867096754428403E-7
1.295455836665455         -2.1                     3.5714300561074726E-7
1.1802724333881178        -1.9121585231134839      3.784514202566034E-7
1.125026545438824         -0.1                     0
0.9855914897201027        -0.1                     0
1.0526738918134877        -0.21908653224120095     5.0745760307076515E-8
0                         0.4654409456151904       1.7458654554312624E-6
0                         0.610624405923613        2.0334740294809163E-6
-0.12289197340930254      0.5418004846451476       1.9217528340729547E-6
-2                        1.6742782303894965       2.698468730049447E-6
-2                        1.4383577247864943       2.5912530445314865E-6
-1.8117366697933595       1.5575821788674828       2.6542308199755156E-6
1.295455836665455         -2.1                     3.5714300561074726E-7
1.530859841202528         -2.1                     3.1441166982357356E-7
1.415644348200134         -1.9131497033115414      3.314634169041783E-7
1.2644616011575456        -0.1                     0
1.125026545438824         -0.1                     0
1.192874707343497         -0.22084913007607143     4.4560727056392377E-8
1.4038966568762674        -0.1                     0
1.2644616011575456        -0.1                     0
1.332907164897741         -0.22178949665731593     3.9512232129284026E-8
0                         0.610624405923613        2.0334740294809163E-6
0                         0.7710264798716884       2.3409925712738567E-6
-0.13536872088927018      0.6951252260151842       2.1860378308394314E-6
-2                        1.910198735992499        2.784052506936255E-6
-2                        1.6742782303894965       2.698468730049447E-6
-1.8133091131503543       1.7928042318094808       2.7517310528261814E-6
1.530859841202528         -2.1                     3.1441166982357356E-7
1.7662638457396016        -2.1                     2.80322333419146E-7
1.6509678419102916        -1.913947536518745       2.9330295664022905E-7
1.5433317125949886        -0.1                     0
1.4038966568762674        -0.1                     0
1.4728399671468908        -0.22170163536203236     3.522681114510959E-8
1.6827667683137104        -0.1                     0
1.5433317125949886        -0.1                     0
1.6126369874543267        -0.22130472154584246     3.1717187425869705E-8
0                         0.7710264798716884       2.3409925712738567E-6
0                         0.9482303952029425       2.662715917730176E-6
-0.14885945969644046      0.8648426735342333       2.4634524636241665E-6
-2                        2.146119241595502        2.8448772953808514E-6
-2                        1.910198735992499        2.784052506936255E-6
-1.8142915345256305       2.0277163781428866       2.8256853980205995E-6
1.7662638457396016        -2.1                     2.80322333419146E-7
2.001667850276675         -2.1                     2.545460761729457E-7
1.8862179694928296        -1.9145872085847693      2.636529229607994E-7
1.8222018240324316        -0.1                     0
1.6827667683137104        -0.1                     0
1.7524205024856452        -0.22053470949905415     2.8800671535512184E-8
0                         0.9482303952029425       2.662715917730176E-6
0                         1.1439937446136246       2.9908392902833412E-6
-0.16192274258080808      1.0514843059799799       2.7458939857923946E-6
-2                        2.382039747198504        2.878822427896196E-6
-2                        2.146119241595502        2.8448772953808514E-6
-1.8145440777929016       2.2632242380517997       2.873730972039128E-6
2.001667850276675         -2.1                     2.545460761729457E-7
2.2370718548137485        -2.1                     2.3672120178380957E-7
2.1212403142882224        -1.9149067733046004      2.421162319188543E-7
1.9616368797511532        -0.1                     0
1.8222018240324316        -0.1                     0
1.8921889778912155        -0.21910083407876818     2.6304356036668764E-8
0                         1.1439937446136246       2.9908392902833412E-6
0                         1.3588800130833947       3.312257022709755E-6
-0.1732581259874024       1.2542482820910217       3.0227418357839706E-6
-2                        2.617960252801507        2.8848457813159554E-6
-2                        2.382039747198504        2.878822427896196E-6
-1.8145535266948256       2.4988131618576177       2.8940209361166295E-6
2.2370718548137485        -2.1                     2.3672120178380957E-7
2.4724758593508214        -2.1                     2.265537877894379E-7
2.3561757520121613        -1.9147880629664602      2.2830143073459996E-7
2.101071935469875         -0.1                     0
1.9616368797511532        -0.1                     0
2.0316898183392325        -0.21925732829813563     2.462871771773482E-8
0                         1.3588800130833947       3.312257022709755E-6
0                         1.5858597535302605       3.6016535424946596E-6
-0.1795084219252066       1.473580209319907        3.2862676397379468E-6
0                         1.5858597535302605       3.6016535424946596E-6
0                         1.8143948151476934       3.83545046862575E-6
-0.18186824464524037      1.6998398195295814       3.514503013319832E-6
-2                        2.853880758404509        2.8630177736985116E-6
-2                        2.617960252801507        2.8848457813159554E-6
-1.8145862475632197       2.734488951757493        2.886006806871938E-6
2.4724758593508214        -2.1                     2.265537877894379E-7
2.707879863887895         -2.1                     2.2388487228037435E-7
2.5899536735415256        -1.9134352851616074      2.2194596908847075E-7
2.2405069911885964        -0.1                     0
2.101071935469875         -0.1                     0
2.170954403518864         -0.21946306339801872     2.3344445213112328E-8
2.379942046907318         -0.1                     0
2.2405069911885964        -0.1                     0
2.309867120532118         -0.22014465275618314     2.248797680002454E-8
2.519377102626039         -0.1                     0
2.379942046907318         -0.1                     0
2.4488005906732924        -0.2209684430572204      2.195884234071346E-8
2.658812158344761         -0.1                     0
2.519377102626039         -0.1                     0
2.5880989398843437        -0.22170854871881326     2.1699377777941518E-8
2.7982472140634824        -0.1                     0
2.658812158344761         -0.1                     0
2.7277088914998533        -0.22229159769563386     2.1691213330093842E-8
2.937682269782204         -0.1                     0
2.7982472140634824        -0.1                     0
2.8673465975262697        -0.22265964559435705     2.192195343962295E-8
0                         1.8143948151476934       3.83545046862575E-6
0                         2.0429298767651267       4.006900191451194E-6
-0.18216771003371712      1.9273041279334155       3.693838334288068E-6
0                         2.0429298767651267       4.006900191451194E-6
0                         2.2714649383825596       4.1126524509298056E-6
-0.18229260576086537      2.1562463098664746       3.817973536007819E-6
-2                        3.0898012640075114       2.8145220953555354E-6
-2                        2.853880758404509        2.8630177736985116E-6
-1.8147035551189845       2.970305247884012        2.850267534489809E-6
2.707879863887895         -2.1                     2.2388487228037435E-7
2.9432838684249694        -2.1                     2.287348345764107E-7
2.825796342759402         -1.9132455382417968      2.2298102145333923E-7
3.077117325500925         -0.1                     0
2.937682269782204         -0.1                     0
3.006845660651237         -0.22280196545492512     2.2388148696269953E-8
3.216552381219647         -0.1                     0
3.077117325500925         -0.1                     0
3.146241572668467         -0.2227424114060532      2.3094267481097973E-8
0                         2.2714649383825596       4.1126524509298056E-6
0                         2.499999999999993        4.150655532871169E-6
-0.1823419249881126       2.385524144460483        3.8828570685400015E-6
-2                        3.3257217696105137       2.741622366882119E-6
-2                        3.0898012640075114       2.8145220953555354E-6
-1.8147743583868332       3.2062665836821345       2.7885035337066915E-6
2.9432838684249694        -2.1                     2.287348345764107E-7
3.178687872962042         -2.1                     2.4133548403556844E-7
3.0614391638272775        -1.912865551540289       2.3156426362137426E-7
3.355987436938369         -0.1                     0
3.216552381219647         -0.1                     0
3.2856120273994947        -0.22253224234583127     2.4052732895862816E-8
3.4954224926570903        -0.1                     0
3.355987436938369         -0.1                     0
3.425086090583705         -0.22232270811302624     2.5301081682644057E-8
0                         2.499999999999993        4.150655532871169E-6
0                         2.7285350616174258       4.120205269690044E-6
-0.1822236976140133       2.614944241793911        3.887025919397429E-6
0                         2.7285350616174258       4.120205269690044E-6
0                         2.957070123234859        4.021959961135773E-6
-0.18182831952101428      2.844479394520134        3.830495783038459E-6
-2                        3.561642275213515        2.6475891359567427E-6
-2                        3.3257217696105137       2.741622366882119E-6
-1.814508241982538        3.4422189006433794       2.703553247169581E-6
3.178687872962042         -2.1                     2.4133548403556844E-7
3.4140918774991156        -2.1                     2.621568928623666E-7
3.2970061712504695        -1.9127564014644418      2.4803924459069526E-7
3.6348575483758117        -0.1                     0
3.4954224926570903        -0.1                     0
3.564745989017066         -0.22231573791816542     2.689811049030636E-8
3.774292604094533         -0.1                     0
3.6348575483758117        -0.1                     0
3.704437425395104         -0.22251683930070898     2.8870405701791314E-8
0                         2.957070123234859        4.021959961135773E-6
0                         3.185605184852292        3.857922535432107E-6
-0.18103431719503904      3.0739776433646573       3.714686700330186E-6
-2                        3.797562780816517        2.536577177384689E-6
-2                        3.561642275213515        2.6475891359567427E-6
-1.8134260535470643       3.6778830759728005       2.5993353374161617E-6
3.4140918774991156        -2.1                     2.621568928623666E-7
3.6494958820361894        -2.1                     2.9193489595603663E-7
3.5325985356809597        -1.9130223104015338      2.730073681172018E-7
3.913727659813255         -0.1                     0
3.774292604094533         -0.1                     0
3.844001964580865         -0.2227039137934069      3.119319623522289E-8
4.053162715531976         -0.1                     0
3.913727659813255         -0.1                     0
3.983533451182107         -0.22272860799811336     3.385438840426698E-8
0                         3.185605184852292        3.857922535432107E-6
0                         3.4141402464697252       3.631392226123499E-6
-0.17941097912602774      3.302977961818844        3.5429961384267034E-6
0                         3.4141402464697252       3.631392226123499E-6
0                         3.641119986916597        3.3490045737146697E-6
-0.17613686177319635      3.5289963861416385       3.322774499129971E-6
0                         3.641119986916597        3.3490045737146697E-6
0                         3.8560062553863665       3.033975858799557E-6
-0.1690979428154845       3.7473075363988624       3.0675662730168577E-6
0                         3.8560062553863665       3.033975858799557E-6
0                         4.051769604797049        2.711429853243616E-6
-0.15879845081525432      3.951390900587333        2.7939953380845763E-6
-2                        4.0334832864195205       2.4134387835106798E-6
-2                        3.797562780816517        2.536577177384689E-6
-1.812388910890345        3.9139707177051837       2.4800437767048584E-6
3.6494958820361894        -2.1                     2.9193489595603663E-7
3.8848998865732622        -2.1                     3.3170306846976463E-7
3.768076711339408         -1.9134476851189879      3.0731690648373927E-7
4.192597771250697         -0.1                     0
4.053162715531976         -0.1                     0
4.123173315966267         -0.22265607970849863     3.6897851135982616E-8
4.332032826969419         -0.1                     0
4.192597771250697         -0.1                     0
4.262887984957112         -0.2225697145639814      4.03797231874839E-8
0                         4.051769604797049        2.711429853243616E-6
0                         4.228973520128305        2.3945279352810522E-6
-0.14640986302166575      4.137549911688174        2.5171931254049116E-6
-2                        4.269403792022521        2.283463572123508E-6
-2                        4.0334832864195205       2.4134387835106798E-6
-1.8112369623242779       4.150177172422889        2.350993290636558E-6
3.8848998865732622        -2.1                     3.3170306846976463E-7
4.120303891110336         -2.1                     3.828320991299282E-7
4.003253548477235         -1.9137409163502896      3.520898190046674E-7
4.471467882688141         -0.1                     0
4.332032826969419         -0.1                     0
4.402591687730564         -0.22245830723910032     4.433405505117621E-8
4.610902938406863         -0.1                     0
4.471467882688141         -0.1                     0
4.542291634883714         -0.22231805150883424     4.8803633090308095E-8
0                         4.228973520128305        2.3945279352810522E-6
0                         4.389375594076383        2.091252397427724E-6
-0.13478616034299182      4.306646857114516        2.245487709505762E-6
-2                        4.505324297625524        2.1520417571610295E-6
-2                        4.269403792022521        2.283463572123508E-6
-1.8108990640579306       4.3863985952651126       2.2177524166788486E-6
4.120303891110336         -2.1                     3.828320991299282E-7
4.35570789564741          -2.1                     4.470790240601457E-7
4.238223236357064         -1.9136704712417378      4.088326715065704E-7
4.750337994125584         -0.1                     0
4.610902938406863         -0.1                     0
4.681973398034401         -0.222155867764129       5.384022975810532E-8
0                         4.389375594076383        2.091252397427724E-6
0                         4.534559054384806        1.8074903086783703E-6
-0.12390885147414508      4.460050095550938        1.9863570628156254E-6
0                         4.534559054384806        1.8074903086783703E-6
0                         4.665978634744171        1.5486222784384518E-6
-0.11431750405086824      4.598908349427916        1.7466012698408144E-6
-2                        4.7412448032285255       2.02427280433223E-6
-2                        4.505324297625524        2.1520417571610295E-6
-1.810825790900088        4.622746456789798        2.085742177011628E-6
4.8897730498443055        -0.1                     0
4.750337994125584         -0.1                     0
4.82158565554097          -0.22194589576647897     5.948501343968863E-8
4.35570789564741          -2.1                     4.470790240601457E-7
4.591111900184483         -2.1                     5.266486802572091E-7
4.473364488870661         -1.913217936025103       4.795697906058886E-7
5.029208105563027         -0.1                     0
4.8897730498443055        -0.1                     0
4.961178047977154         -0.2217109037287116      6.581041698061566E-8
0                         4.665978634744171        1.5486222784384518E-6
0                         4.785352746330957        1.320361264954837E-6
-0.10616172329562268      4.724920711233303        1.5320162901241245E-6
-2                        4.977165308831528        1.9045687935682735E-6
-2                        4.7412448032285255       2.02427280433223E-6
-1.810934242614844        4.8591477658263225       1.959971155723394E-6
4.591111900184483         -2.1                     5.266486802572091E-7
4.826515904721557         -2.1                     6.242700566529488E-7
4.70881662155852          -1.9126859944033898      5.668213990885733E-7
5.168643161281748         -0.1                     0
5.029208105563027         -0.1                     0
5.100788308544586         -0.22157220136551412     7.295999900273018E-8
0                         4.785352746330957        1.320361264954837E-6
0                         4.896093599842548        1.1292372156752008E-6
-0.09875504944445097      4.840263815955695        1.3474370994540861E-6
-2                        5.21308581443453         1.7963284203875453E-6
-2                        4.977165308831528        1.9045687935682735E-6
-1.8109653461710749       5.095612306736077        1.8444863473402942E-6
-2                        5.449006320037531        1.7017578653354484E-6
-2                        5.21308581443453         1.7963284203875453E-6
-1.8104698060615043       5.332418170827913        1.7420208285733794E-6
4.826515904721557         -2.1                     6.242700566529488E-7
5.061919909258631         -2.1                     7.432904163199203E-7
4.944317778872884         -1.912532314174615       6.735524180228766E-7
5.308078217000469         -0.1                     0
5.168643161281748         -0.1                     0
5.2402854346454175        -0.22163605167058242     8.109799215308314E-8
0                         4.896093599842548        1.1292372156752008E-6
0                         5                        9.889059889315743E-7
-0.09752139268225549      4.944990626336669        1.2086407251421222E-6
-2                        5.6849268256405345       1.6218804026809543E-6
-2                        5.449006320037531        1.7017578653354484E-6
-1.8095149671305624       5.569514327014867        1.6542313772190052E-6
5.447513272719191         -0.1                     0
5.308078217000469         -0.1                     0
5.379471834422474         -0.2218116247760093      9.028068133057256E-8
5.061919909258631         -2.1                     7.432904163199203E-7
5.297323913795703         -2.1                     8.877903266344955E-7
5.179835162781797         -1.9126174191717071      8.034192448216741E-7
5.586948328437913         -0.1                     0
5.447513272719191         -0.1                     0
5.518295822878883         -0.22178694500657162     1.0037840286144851E-7
5.726383384156634         -0.1                     0
5.586948328437913         -0.1                     0
5.65697084260933          -0.22167894489010276     1.1157727234233907E-7
0                         5                        9.889059889315743E-7
0.09725799567993704       5                        7.763457823151147E-7
0.04549028241684818       5.084242024656803        8.233998791890674E-7
-2                        5.920847331243536        1.556721411215482E-6
-2                        5.6849268256405345       1.6218804026809543E-6
-1.8068187192012128       5.80682498208139         1.5815410592739258E-6
-2                        6.156767836846538        1.5056049496988578E-6
-2                        5.920847331243536        1.556721411215482E-6
-1.8026107942666219       6.047812453281348        1.5227922448236484E-6
5.297323913795703         -2.1                     8.877903266344955E-7
5.532727918332776         -2.1                     1.0627235429573641E-6
5.415313699135471         -1.9127954095606348      9.608384461247386E-7
5.865818439875356         -0.1                     0
5.726383384156634         -0.1                     0
5.795592355771693         -0.22128094252934744     1.2377966954313376E-7
6.0052534955940775        -0.1                     0
5.865818439875356         -0.1                     0
5.934404023592075         -0.2209415381826476      1.3745028554734788E-7
0.09725799567993704       5                        7.763457823151147E-7
0.18706786716800028       5                        4.970321107977411E-7
0.1341775722796173        5.076781767364179        6.005847733518629E-7
0.18706786716800028       5                        4.970321107977411E-7
0.27                      5                        0
0.20588771972661823       5.079897859618956        3.4295955949096304E-7
-2                        6.39268834244954         1.4674858268268128E-6