% Model:                CdZnTE_280211_2D_SE_WP_Cathode.mph
% Version:              COMSOL 4.1.0.88
% Date:                 Jul 11 2011, 14:31
% Dimension:            2
% Nodes:                56934
% Expressions:          1
% Description:          Electric potential
% x                       y                        V (V)
-2                        -1.8645293522661046      1.386811088034352E-4
-2                        -2.1                     1.3783632482710097E-4
-1.846364360343395        -1.9401710821195468      1.378648239147086E-4
-2                        -2.1                     1.3783632482710097E-4
-1.764796222180569        -2.1                     1.369959769914277E-4
-1.846364360343395        -1.9401710821195468      1.378648239147086E-4
-2                        -1.6286088480525398      1.412375920850977E-4
-2                        -1.8645293522661046      1.386811088034352E-4
-1.8245167365948494       -1.7449367782940313      1.3928317966193087E-4
-2                        -1.3926883424495373      1.4554975272938178E-4
-2                        -1.6286088480525398      1.412375920850977E-4
-1.8168623695316584       -1.512189523512412       1.4260498713984364E-4
-1.764796222180569        -2.1                     1.369959769914277E-4
-1.529392217779427        -2.1                     1.3448882109829286E-4
-1.6425247983867886       -1.8914043628477542      1.3654760167447507E-4
-2                        -1.1567678368465348      1.5168190217735325E-4
-2                        -1.3926883424495373      1.4554975272938178E-4
-1.8122455777218598       -1.2767049080338484      1.4774507426199482E-4
-1.529392217779427        -2.1                     1.3448882109829286E-4
-1.2939882132423535       -2.1                     1.303656875631863E-4
-1.3989614082807784       -1.9110406672624995      1.3290678951520836E-4
-2                        -0.920847331243532       1.5970354713815696E-4
-2                        -1.1567678368465348      1.5168190217735325E-4
-1.8109836351205506       -1.0405681798744235      1.5477550348091834E-4
-1.2939882132423535       -2.1                     1.303656875631863E-4
-1.05858420870528         -2.1                     1.2471994815378226E-4
-1.1696308739542287       -1.909293466203794       1.2804467733271147E-4
-2                        -0.6849268256405294      1.6966712917795645E-4
-2                        -0.920847331243532       1.5970354713815696E-4
-1.810295659913922        -0.8045304929098868      1.63737309535166E-4
-1.05858420870528         -2.1                     1.2471994815378226E-4
-0.8231802041682066       -2.1                     1.1769562236549393E-4
-0.9374566002124125       -1.908700173002049       1.2169247680364485E-4
-2                        -0.4490063200375265      1.8157915580557766E-4
-2                        -0.6849268256405294      1.6966712917795645E-4
-1.8097491300494364       -0.5683692088677957      1.7468096816532466E-4
-0.8231802041682066       -2.1                     1.1769562236549393E-4
-0.587776199631133        -2.1                     1.0949664494126743E-4
-0.702442025043489        -1.9095207699513645      1.1396683000443135E-4
-2                        -0.21308581443452423     1.9536815626831634E-4
-2                        -0.4490063200375265      1.8157915580557766E-4
-1.8097640917460813       -0.3318487261805915      1.8760888572075994E-4
-0.587776199631133        -2.1                     1.0949664494126743E-4
-0.3523721950940597       -2.1                     1.0039024337163112E-4
-0.4672480472817225       -1.9100923020549863      1.0517387253853992E-4
-2                        0.02283469116847825      2.108559320809298E-4
-2                        -0.21308581443452423     1.9536815626831634E-4
-1.8105412062410897       -0.0958658833976639      2.023567385718305E-4
-0.3523721950940597       -2.1                     1.0039024337163112E-4
-0.11696819055698615      -2.1                     9.069942482908176E-5
-0.23252005099952355      -1.9100649405128722      9.564005320002412E-5
-2                        0.2587551967714812       2.2774038236183844E-4
-2                        0.02283469116847825      2.108559320809298E-4
-1.8110785387248838       0.14021195088646163      2.1871584235252293E-4
-0.11696819055698615      -2.1                     9.069942482908176E-5
0.11843581398008718       -2.1                     8.07810101043583E-5
0.0028064179962684482     -1.9097863682838865      8.567188309490565E-5
0.3639115504057773        -0.1                     0
0.27                      -0.1                     0
0.3155232914343534        -0.1891591978532564      2.2826334562128406E-5
0.18706786716800006       0                        5.4311190145619474E-5
0.09725799567993655       0                        8.457064805325362E-5
0.136474273000267         -0.06484323953093968     6.381565810864409E-5
0.09725799567993655       0                        8.457064805325362E-5
0                         0                        1.0759572978531976E-4
0.04825893493545653       -0.083540921452322       8.687401808557248E-5
-2                        0.49467570237448366      2.45596381197641E-4
-2                        0.2587551967714812       2.2774038236183844E-4
-1.8108872450663813       0.37611999723855494      2.3629758895633818E-4
0.11843581398008718       -2.1                     8.07810101043583E-5
0.3538398185171605        -2.1                     7.099058261555972E-5
0.23790455401201951       -1.9095195768809718      7.567581145190446E-5
0.4676574669449062        -0.1                     0
0.3639115504057773        -0.1                     0
0.41484073698070734       -0.19607074930896257     1.546348632847212E-5
0.27                      -0.1                     0
0.27                      0                        0
0.2093597961748373        -0.058752783995909975    3.5128182003963976E-5
0.27                      0                        0
0.18706786716800006       0                        5.4311190145619474E-5
0.2093597961748373        -0.058752783995909975    3.5128182003963976E-5
0                         0                        1.0759572978531976E-4
0                         0.10390640015745226      1.2539361493413016E-4
-0.09240933680645019      0.05644175854491199      1.322893592017819E-4
-2                        0.7305962079774864       2.6389643439638904E-4
-2                        0.49467570237448366      2.45596381197641E-4
-1.8102978591166694       0.6121077323603339       2.5463410296584E-4
0.3538398185171605        -2.1                     7.099058261555972E-5
0.5892438230542343        -2.1                     6.164262189552376E-5
0.47351012803695564       -1.9096142074834344      6.597386926926872E-5
0.5822677116210757        -0.1                     0
0.4676574669449062        -0.1                     0
0.5254387392722403        -0.19828333020975616     1.1357822202741292E-5
0                         0.10390640015745226      1.2539361493413016E-4
0                         0.21464725366904303      1.488069898608669E-4
-0.09413192195342449      0.162719619652995        1.5038453266830656E-4
-2                        0.9665167135804887       2.820465709106892E-4
-2                        0.7305962079774864       2.6389643439638904E-4
-1.809636460660011        0.8481252817224755       2.731443824941962E-4
0.5892438230542343        -2.1                     6.164262189552376E-5
0.8246478275913076        -2.1                     5.2978044582312695E-5
0.7092119849183914        -1.9101441564387935      5.687463237485953E-5
0.7088801016846716        -0.1                     0
0.5822677116210757        -0.1                     0
0.6463164295287661        -0.20419523662202613     9.209452228864417E-6
0                         0.21464725366904303      1.488069898608669E-4
0                         0.33402136525582626      1.7641426058858357E-4
-0.10238192627319108      0.2773266173600838       1.732699038850394E-4
-2                        1.2024372191834916       2.994296470237507E-4
-2                        0.9665167135804887       2.820465709106892E-4
-1.8093966065345832       1.0848785704694899       2.91253475068255E-4
0.8246478275913076        -2.1                     5.2978044582312695E-5
1.060051832128381         -2.1                     4.514875113311868E-5
0.944810122475995         -1.9110638723910947      4.858456904343578E-5
0.8462977796009774        -0.1                     0
0.7088801016846716        -0.1                     0
0.7768427587250946        -0.20990692940404454     7.721776555770039E-6
0.9855914897201027        -0.1                     0
0.8462977796009774        -0.1                     0
0.913331841434306         -0.21558011435769117     6.640537300965586E-6
0                         0.33402136525582626      1.7641426058858357E-4
0                         0.4654409456151904       2.076004352206562E-4
-0.11195765141043862      0.40324858292617355      1.9967801644640628E-4
-2                        1.4383577247864943       3.1544815427293375E-4
-2                        1.2024372191834916       2.994296470237507E-4
-1.8102250904199269       1.3218538434612288       3.0828019653096085E-4
1.060051832128381         -2.1                     4.514875113311868E-5
1.295455836665455         -2.1                     3.822097695885489E-5
1.1802724333881178        -1.9121585231134839      4.12055091798851E-5
1.125026545438824         -0.1                     0
0.9855914897201027        -0.1                     0
1.0526738918134877        -0.21908653224120095     5.719710827416602E-6
0                         0.4654409456151904       2.076004352206562E-4
0                         0.610624405923613        2.417527908758575E-4
-0.12289197340930254      0.5418004846451476       2.2889060675114847E-4
-2                        1.6742782303894965       3.295612240399324E-4
-2                        1.4383577247864943       3.1544815427293375E-4
-1.8117366697933595       1.5575821788674828       3.235373698743228E-4
1.295455836665455         -2.1                     3.822097695885489E-5
1.530859841202528         -2.1                     3.219190015498159E-5
1.415644348200134         -1.9131497033115414      3.4754762294360826E-5
1.2644616011575456        -0.1                     0
1.125026545438824         -0.1                     0
1.192874707343497         -0.22084913007607143     4.934590308948093E-6
1.4038966568762674        -0.1                     0
1.2644616011575456        -0.1                     0
1.332907164897741         -0.22178949665731593     4.282063497513083E-6
0                         0.610624405923613        2.417527908758575E-4
0                         0.7710264798716884       2.7830342877581757E-4
-0.13536872088927018      0.6951252260151842       2.6040529731968397E-4
-2                        1.910198735992499        3.4131351360483E-4
-2                        1.6742782303894965       3.295612240399324E-4
-1.8133091131503543       1.7928042318094808       3.3658857903582723E-4
1.530859841202528         -2.1                     3.219190015498159E-5
1.7662638457396016        -2.1                     2.7011323908531418E-5
1.6509678419102916        -1.913947536518745       2.9192923668636342E-5
1.5433317125949886        -0.1                     0
1.4038966568762674        -0.1                     0
1.4728399671468908        -0.22170163536203236     3.7186836626275996E-6
1.6827667683137104        -0.1                     0
1.5433317125949886        -0.1                     0
1.6126369874543267        -0.22130472154584246     3.2435194500824675E-6
0                         0.7710264798716884       2.7830342877581757E-4
0                         0.9482303952029425       3.166045005250992E-4
-0.14885945969644046      0.8648426735342333       2.9355308882284914E-4
-2                        2.146119241595502        3.5035628951749496E-4
-2                        1.910198735992499        3.4131351360483E-4
-1.8142915345256305       2.0277163781428866       3.470586018643706E-4
1.7662638457396016        -2.1                     2.7011323908531418E-5
2.001667850276675         -2.1                     2.2601924261683037E-5
1.8862179694928296        -1.9145872085847693      2.444795722749624E-5
1.8222018240324316        -0.1                     0
1.6827667683137104        -0.1                     0
1.7524205024856452        -0.22053470949905415     2.834857878487434E-6
0                         0.9482303952029425       3.166045005250992E-4
0                         1.1439937446136246       3.557699593003875E-4
-0.16192274258080808      1.0514843059799799       3.274006467063658E-4
-2                        2.382039747198504        3.5646179038933734E-4
-2                        2.146119241595502        3.5035628951749496E-4
-1.8145440777929016       2.2632242380517997       3.546964974433821E-4
2.001667850276675         -2.1                     2.2601924261683037E-5
2.2370718548137485        -2.1                     1.8874862425489776E-5
2.1212403142882224        -1.9149067733046004      2.0432642618849132E-5
1.9616368797511532        -0.1                     0
1.8222018240324316        -0.1                     0
1.8921889778912155        -0.21910083407876818     2.473644117760155E-6
0                         1.1439937446136246       3.557699593003875E-4
0                         1.3588800130833947       3.942950207544086E-4
-0.1732581259874024       1.2542482820910217       3.607188228612929E-4
-2                        2.617960252801507        3.5953221234282017E-4
-2                        2.382039747198504        3.5646179038933734E-4
-1.8145535266948256       2.4988131618576177       3.593047424394344E-4
2.2370718548137485        -2.1                     1.8874862425489776E-5
2.4724758593508214        -2.1                     1.574023552448669E-5
2.3561757520121613        -1.9147880629664602      1.7050822215599575E-5
2.101071935469875         -0.1                     0
1.9616368797511532        -0.1                     0
2.0316898183392325        -0.21925732829813563     2.1943809718893865E-6
0                         1.3588800130833947       3.942950207544086E-4
0                         1.5858597535302605       4.292132958673403E-4
-0.1795084219252066       1.473580209319907        3.9261459186529707E-4
0                         1.5858597535302605       4.292132958673403E-4
0                         1.8143948151476934       4.577304111681027E-4
-0.18186824464524037      1.6998398195295814       4.2049449145789515E-4
-2                        2.853880758404509        3.5960418056871685E-4
-2                        2.617960252801507        3.5953221234282017E-4
-1.8145862475632197       2.734488951757493        3.6084558366591935E-4
2.4724758593508214        -2.1                     1.574023552448669E-5
2.707879863887895         -2.1                     1.3113211474430144E-5
2.5899536735415256        -1.9134352851616074      1.4224122251923331E-5
2.2405069911885964        -0.1                     0
2.101071935469875         -0.1                     0
2.170954403518864         -0.21946306339801872     1.9524710495541305E-6
2.379942046907318         -0.1                     0
2.2405069911885964        -0.1                     0
2.309867120532118         -0.22014465275618314     1.7478804026418342E-6
2.519377102626039         -0.1                     0
2.379942046907318         -0.1                     0
2.4488005906732924        -0.2209684430572204      1.5687873930459456E-6
2.658812158344761         -0.1                     0
2.519377102626039         -0.1                     0
2.5880989398843437        -0.22170854871881326     1.4082389902480537E-6
2.7982472140634824        -0.1                     0
2.658812158344761         -0.1                     0
2.7277088914998533        -0.22229159769563386     1.2633186427999626E-6
2.937682269782204         -0.1                     0
2.7982472140634824        -0.1                     0
2.8673465975262697        -0.22265964559435705     1.1321294560094432E-6
0                         1.8143948151476934       4.577304111681027E-4
0                         2.0429298767651267       4.7904995303166254E-4
-0.18216771003371712      1.9273041279334155       4.427517053835882E-4
0                         2.0429298767651267       4.7904995303166254E-4
0                         2.2714649383825596       4.927749074126055E-4
-0.18229260576086537      2.1562463098664746       4.5866142698474174E-4
-2                        3.0898012640075114       3.5684912417471685E-4
-2                        2.853880758404509        3.5960418056871685E-4
-1.8147035551189845       2.970305247884012        3.594182599904944E-4
2.707879863887895         -2.1                     1.3113211474430144E-5
2.9432838684249694        -2.1                     1.091709953450151E-5
2.825796342759402         -1.9132455382417968      1.1839535257796857E-5
3.077117325500925         -0.1                     0
2.937682269782204         -0.1                     0
3.006845660651237         -0.22280196545492512     1.0134139655094523E-6
3.216552381219647         -0.1                     0
3.077117325500925         -0.1                     0
3.146241572668467         -0.2227424114060532      9.06165629440679E-7
0                         2.2714649383825596       4.927749074126055E-4
0                         2.499999999999993        4.986559716339472E-4
-0.1823419249881126       2.385524144460483        4.6774212669482943E-4
-2                        3.3257217696105137       3.515692000579029E-4
-2                        3.0898012640075114       3.5684912417471685E-4
-1.8147743583868332       3.2062665836821345       3.552574499268942E-4
2.9432838684249694        -2.1                     1.091709953450151E-5
3.178687872962042         -2.1                     9.084433721791573E-6
3.0614391638272775        -1.912865551540289       9.850805449965805E-6
3.355987436938369         -0.1                     0
3.216552381219647         -0.1                     0
3.2856120273994947        -0.22253224234583127     8.096000077698906E-7
3.4954224926570903        -0.1                     0
3.355987436938369         -0.1                     0
3.425086090583705         -0.22232270811302624     7.23488203198704E-7
0                         2.499999999999993        4.986559716339472E-4
0                         2.7285350616174258       4.965981903108398E-4
-0.1822236976140133       2.614944241793911        4.698167133494853E-4
0                         2.7285350616174258       4.965981903108398E-4
0                         2.957070123234859        4.866636254039832E-4
-0.18182831952101428      2.844479394520134        4.648806647192708E-4
-2                        3.561642275213515        3.441877181054409E-4
-2                        3.3257217696105137       3.515692000579029E-4
-1.814508241982538        3.4422189006433794       3.487327807409984E-4
3.178687872962042         -2.1                     9.084433721791573E-6
3.4140918774991156        -2.1                     7.556943103135276E-6
3.2970061712504695        -1.9127564014644418      8.193884075386599E-6
3.6348575483758117        -0.1                     0
3.4954224926570903        -0.1                     0
3.564745989017066         -0.22231573791816542     6.476675709173067E-7
3.774292604094533         -0.1                     0
3.6348575483758117        -0.1                     0
3.704437425395104         -0.22251683930070898     5.808788994933204E-7
0                         2.957070123234859        4.866636254039832E-4
0                         3.185605184852292        4.6907014265903425E-4
-0.18103431719503904      3.0739776433646573       4.5309259721514674E-4
-2                        3.797562780816517        3.352323533608651E-4
-2                        3.561642275213515        3.441877181054409E-4
-1.8134260535470643       3.6778830759728005       3.403396506579372E-4
3.4140918774991156        -2.1                     7.556943103135276E-6
3.6494958820361894        -2.1                     6.284905218422265E-6
3.5325985356809597        -1.9130223104015338      6.814139048280775E-6
3.913727659813255         -0.1                     0
3.774292604094533         -0.1                     0
3.844001964580865         -0.2227039137934069      5.210547334046909E-7
4.053162715531976         -0.1                     0
3.913727659813255         -0.1                     0
3.983533451182107         -0.22272860799811336     4.6684992122846994E-7
0                         3.185605184852292        4.6907014265903425E-4
0                         3.4141402464697252       4.4418654774948363E-4
-0.17941097912602774      3.302977961818844        4.348381691879955E-4
0                         3.4141402464697252       4.4418654774948363E-4
0                         3.641119986916597        4.127609474850414E-4
-0.17613686177319635      3.5289963861416385       4.109446050367829E-4
0                         3.641119986916597        4.127609474850414E-4
0                         3.8560062553863665       3.77420391155248E-4
-0.1690979428154845       3.7473075363988624       3.829220993165263E-4
0                         3.8560062553863665       3.77420391155248E-4
0                         4.051769604797049        3.410491239258002E-4
-0.15879845081525432      3.951390900587333        3.526442837932949E-4
-2                        4.0334832864195205       3.2530882493722797E-4
-2                        3.797562780816517        3.352323533608651E-4
-1.812388910890345        3.9139707177051837       3.3062391600680626E-4
3.6494958820361894        -2.1                     6.284905218422265E-6
3.8848998865732622        -2.1                     5.226241351702099E-6
3.768076711339408         -1.9134476851189879      5.666418968686097E-6
4.192597771250697         -0.1                     0
4.053162715531976         -0.1                     0
4.123173315966267         -0.22265607970849863     4.179647327989235E-7
4.332032826969419         -0.1                     0
4.192597771250697         -0.1                     0
4.262887984957112         -0.2225697145639814      3.7416983335450245E-7
0                         4.051769604797049        3.410491239258002E-4
0                         4.228973520128305        3.0519751402702505E-4
-0.14640986302166575      4.137549911688174        3.218469651083396E-4
-2                        4.269403792022521        3.150633641854067E-4
-2                        4.0334832864195205       3.2530882493722797E-4
-1.8112369623242779       4.150177172422889        3.202398469483464E-4
3.8848998865732622        -2.1                     5.226241351702099E-6
4.120303891110336         -2.1                     4.3455416921588324E-6
4.003253548477235         -1.9137409163502896      4.71258506600586E-6
4.471467882688141         -0.1                     0
4.332032826969419         -0.1                     0
4.402591687730564         -0.22245830723910032     3.349257936268741E-7
4.610902938406863         -0.1                     0
4.471467882688141         -0.1                     0
4.542291634883714         -0.22231805150883424     2.99750002652415E-7
0                         4.228973520128305        3.0519751402702505E-4
0                         4.389375594076383        2.708349761154477E-4
-0.13478616034299182      4.306646857114516        2.915698491644816E-4
-2                        4.505324297625524        3.0513346009558703E-4
-2                        4.269403792022521        3.150633641854067E-4
-1.8108990640579306       4.3863985952651126       3.098612699172415E-4
4.120303891110336         -2.1                     4.3455416921588324E-6
4.35570789564741          -2.1                     3.613122803904392E-6
4.238223236357064         -1.9136704712417378      3.919585433123663E-6
4.750337994125584         -0.1                     0
4.610902938406863         -0.1                     0
4.681973398034401         -0.222155867764129       2.6824282281497205E-7
0                         4.389375594076383        2.708349761154477E-4
0                         4.534559054384806        2.3870976069418376E-4
-0.12390885147414508      4.460050095550938        2.6274127659141447E-4
0                         4.534559054384806        2.3870976069418376E-4
0                         4.665978634744171        2.0956459349919692E-4
-0.11431750405086824      4.598908349427916        2.362615523599073E-4
-2                        4.7412448032285255       2.9609020852242897E-4
-2                        4.505324297625524        3.0513346009558703E-4
-1.810825790900088        4.622746456789798        3.001209135254294E-4
4.8897730498443055        -0.1                     0
4.750337994125584         -0.1                     0
4.82158565554097          -0.22194589576647897     2.399828488510744E-7
4.35570789564741          -2.1                     3.613122803904392E-6
4.591111900184483         -2.1                     3.0041680492095767E-6
4.473364488870661         -1.913217936025103       3.25941379548979E-6
5.029208105563027         -0.1                     0
4.8897730498443055        -0.1                     0
4.961178047977154         -0.2217109037287116      2.14673872354229E-7
0                         4.665978634744171        2.0956459349919692E-4
0                         4.785352746330957        1.8427710991472673E-4
-0.10616172329562268      4.724920711233303        2.1297366454423036E-4
-2                        4.977165308831528        2.8838011018421443E-4
-2                        4.7412448032285255       2.9609020852242897E-4
-1.810934242614844        4.8591477658263225       2.9156055806528366E-4
4.591111900184483         -2.1                     3.0041680492095767E-6
4.826515904721557         -2.1                     2.4979695453338098E-6
4.70881662155852          -1.9126859944033898      2.709831895055753E-6
5.168643161281748         -0.1                     0
5.029208105563027         -0.1                     0
5.100788308544586         -0.22157220136551412     1.921969834175848E-7
0                         4.785352746330957        1.8427710991472673E-4
0                         4.896093599842548        1.6404717798496754E-4
-0.09875504944445097      4.840263815955695        1.936658186602812E-4
-2                        5.21308581443453         2.8227844521663256E-4
-2                        4.977165308831528        2.8838011018421443E-4
-1.8109653461710749       5.095612306736077        2.8455992008888685E-4
-2                        5.449006320037531        2.778665586022357E-4
-2                        5.21308581443453         2.8227844521663256E-4
-1.8104698060615043       5.332418170827913        2.79295280186291E-4
4.826515904721557         -2.1                     2.4979695453338098E-6
5.061919909258631         -2.1                     2.077271608821579E-6
4.944317778872884         -1.912532314174615       2.253099927716201E-6
5.308078217000469         -0.1                     0
5.168643161281748         -0.1                     0
5.2402854346454175        -0.22163605167058242     1.723893042212866E-7
0                         4.896093599842548        1.6404717798496754E-4
0                         5                        1.5112974542887136E-4
-0.09752139268225549      4.944990626336669        1.8073183580776266E-4
-2                        5.6849268256405345       2.7504007428151453E-4
-2                        5.449006320037531        2.778665586022357E-4
-1.8095149671305624       5.569514327014867        2.757525218020109E-4
5.447513272719191         -0.1                     0
5.308078217000469         -0.1                     0
5.379471834422474         -0.2218116247760093      1.5481718171999523E-7
5.061919909258631         -2.1                     2.077271608821579E-6
5.297323913795703         -2.1                     1.7277082929528587E-6
5.179835162781797         -1.9126174191717071      1.8736225914246952E-6
5.586948328437913         -0.1                     0
5.447513272719191         -0.1                     0
5.518295822878883         -0.22178694500657162     1.3886352835018494E-7
5.726383384156634         -0.1                     0
5.586948328437913         -0.1                     0
5.65697084260933          -0.22167894489010276     1.2450032805327065E-7
0                         5                        1.5112974542887136E-4
0.09725799567993704       5                        1.1795951277827457E-4
0.04549028241684818       5.084242024656803        1.3271712037192586E-4
-2                        5.920847331243536        2.735460387813681E-4
-2                        5.6849268256405345       2.7504007428151453E-4
-1.8068187192012128       5.80682498208139         2.73729786819126E-4
-2                        6.156767836846538        2.7303851864078567E-4
-2                        5.920847331243536        2.735460387813681E-4
-1.8026107942666219       6.047812453281348        2.7290007002126436E-4
5.297323913795703         -2.1                     1.7277082929528587E-6
5.532727918332776         -2.1                     1.4373283060671549E-6
5.415313699135471         -1.9127954095606348      1.5584416735943646E-6
5.865818439875356         -0.1                     0
5.726383384156634         -0.1                     0
5.795592355771693         -0.22128094252934744     1.1138026383659125E-7
6.0052534955940775        -0.1                     0
5.865818439875356         -0.1                     0
5.934404023592075         -0.2209415381826476      9.969525747267644E-8
0.09725799567993704       5                        1.1795951277827457E-4
0.18706786716800028       5                        7.44879141668297E-5
0.1341775722796173        5.076781767364179        9.712164851070394E-5
0.18706786716800028       5                        7.44879141668297E-5
0.27                      5                        0
0.20588771972661823       5.079897859618956        5.640557233974147E-5
-2                        6.39268834244954         2.7314103722504474E-4