% Model:                CdZnTE_280211_2D_SE_WP_Cathode.mph
% Version:              COMSOL 4.1.0.88
% Date:                 Jul 11 2011, 14:15
% Dimension:            2
% Nodes:                56934
% Expressions:          1
% Description:          Electric potential
% x                       y                        V (V)
-2                        -1.8645293522661046      0.026140352044912715
-2                        -2.1                     0.025974142362982646
-1.846364360343395        -1.9401710821195468      0.025979692614101
-2                        -2.1                     0.025974142362982646
-1.764796222180569        -2.1                     0.025808937915328272
-1.846364360343395        -1.9401710821195468      0.025979692614101
-2                        -1.6286088480525398      0.026644205112996203
-2                        -1.8645293522661046      0.026140352044912715
-1.8245167365948494       -1.7449367782940313      0.026258541728080353
-2                        -1.3926883424495373      0.02749709436915587
-2                        -1.6286088480525398      0.026644205112996203
-1.8168623695316584       -1.512189523512412       0.026913103274860153
-1.764796222180569        -2.1                     0.025808937915328272
-1.529392217779427        -2.1                     0.025316882231267036
-1.6425247983867886       -1.8914043628477542      0.025720367077351657
-2                        -1.1567678368465348      0.028716781136598465
-2                        -1.3926883424495373      0.02749709436915587
-1.8122455777218598       -1.2767049080338484      0.027930242756835894
-1.529392217779427        -2.1                     0.025316882231267036
-1.2939882132423535       -2.1                     0.02451021959383439
-1.3989614082807784       -1.9110406672624995      0.025005931673678882
-2                        -0.920847331243532       0.03032520208653316
-2                        -1.1567678368465348      0.028716781136598465
-1.8109836351205506       -1.0405681798744235      0.029330499878198642
-1.2939882132423535       -2.1                     0.02451021959383439
-1.05858420870528         -2.1                     0.02341061727918665
-1.1696308739542287       -1.909293466203794       0.02405561022762202
-2                        -0.6849268256405294      0.03234517017249709
-2                        -0.920847331243532       0.03032520208653316
-1.810295659913922        -0.8045304929098868      0.031131712552915063
-1.05858420870528         -2.1                     0.02341061727918665
-0.8231802041682066       -2.1                     0.02205001895313757
-0.9374566002124125       -1.908700173002049       0.022820506059819164
-2                        -0.4490063200375265      0.03479594172313745
-2                        -0.6849268256405294      0.03234517017249709
-1.8097491300494364       -0.5683692088677957      0.03335847766558404
-0.8231802041682066       -2.1                     0.02205001895313757
-0.587776199631133        -2.1                     0.020471638912170086
-0.702442025043489        -1.9095207699513645      0.021327591668894568
-2                        -0.21308581443452423     0.03768807488828734
-2                        -0.4490063200375265      0.03479594172313745
-1.8097640917460813       -0.3318487261805915      0.03603247834665731
-0.587776199631133        -2.1                     0.020471638912170086
-0.3523721950940597       -2.1                     0.01872978736679991
-0.4672480472817225       -1.9100923020549863      0.019639681115471277
-2                        0.02283469116847825      0.04101846753229688
-2                        -0.21308581443452423     0.03768807488828734
-1.8105412062410897       -0.0958658833976639      0.03914925523496584
-0.3523721950940597       -2.1                     0.01872978736679991
-0.11696819055698615      -2.1                     0.016887795866476714
-0.23252005099952355      -1.9100649405128722      0.017821739655444743
-2                        0.2587551967714812       0.044766757682553754
-2                        0.02283469116847825      0.04101846753229688
-1.8110785387248838       0.14021195088646163      0.04270377914363026
-0.11696819055698615      -2.1                     0.016887795866476714
0.11843581398008718       -2.1                     0.01501356371205904
0.0028064179962684482     -1.9097863682838865      0.015933020662745278
0.3639115504057773        -0.1                     0
0.27                      -0.1                     0
0.3155232914343534        -0.1891591978532564      0.00403595494098688
0.18706786716800006       0                        0.008902091570985881
0.09725799567993655       0                        0.014121667431879058
0.136474273000267         -0.06484323953093968     0.010794425157499917
0.09725799567993655       0                        0.014121667431879058
0                         0                        0.0182586666469643
0.04825893493545653       -0.083540921452322       0.014893136604298161
-2                        0.49467570237448366      0.04889403813531008
-2                        0.2587551967714812       0.044766757682553754
-1.8108872450663813       0.37611999723855494      0.04666161017559344
0.11843581398008718       -2.1                     0.01501356371205904
0.3538398185171605        -2.1                     0.013173087936498866
0.23790455401201951       -1.9095195768809718      0.014049834705016712
0.4676574669449062        -0.1                     0
0.3639115504057773        -0.1                     0
0.41484073698070734       -0.19607074930896257     0.002764492394086534
0.27                      -0.1                     0
0.27                      0                        0
0.2093597961748373        -0.058752783995909975    0.005890327199672932
0.27                      0                        0
0.18706786716800006       0                        0.008902091570985881
0.2093597961748373        -0.058752783995909975    0.005890327199672932
0                         0                        0.0182586666469643
0                         0.10390640015745226      0.020892679086842173
-0.09240933680645019      0.05644175854491199      0.022583661464911094
-2                        0.7305962079774864       0.05334415341887306
-2                        0.49467570237448366      0.04889403813531008
-1.8102978591166694       0.6121077323603339       0.05097878040087064
0.3538398185171605        -2.1                     0.013173087936498866
0.5892438230542343        -2.1                     0.01142347626579438
0.47351012803695564       -1.9096142074834344      0.012230998915114972
0.5822677116210757        -0.1                     0
0.4676574669449062        -0.1                     0
0.5254387392722403        -0.19828333020975616     0.0020464652244425005
0                         0.10390640015745226      0.020892679086842173
0                         0.21464725366904303      0.024390541760444674
-0.09413192195342449      0.162719619652995        0.02534089757188039
-2                        0.9665167135804887       0.058046978757661974
-2                        0.7305962079774864       0.05334415341887306
-1.809636460660011        0.8481252817224755       0.05559023027918037
0.5892438230542343        -2.1                     0.01142347626579438
0.8246478275913076        -2.1                     0.009807524023818598
0.7092119849183914        -1.9101441564387935      0.010531963372523757
0.7088801016846716        -0.1                     0
0.5822677116210757        -0.1                     0
0.6463164295287661        -0.20419523662202613     0.0016690860378726666
0                         0.21464725366904303      0.024390541760444674
0                         0.33402136525582626      0.02853920257695882
-0.10238192627319108      0.2773266173600838       0.02890781399935589
-2                        1.2024372191834916       0.06292264648562483
-2                        0.9665167135804887       0.058046978757661974
-1.8093966065345832       1.0848785704694899       0.06043403535587227
0.8246478275913076        -2.1                     0.009807524023818598
1.060051832128381         -2.1                     0.008351407409000621
0.944810122475995         -1.9110638723910947      0.008988853819496963
0.8462977796009774        -0.1                     0
0.7088801016846716        -0.1                     0
0.7768427587250946        -0.20990692940404454     0.0014056027657109828
0.9855914897201027        -0.1                     0
0.8462977796009774        -0.1                     0
0.913331841434306         -0.21558011435769117     0.0012127381782582867
0                         0.33402136525582626      0.02853920257695882
0                         0.4654409456151904       0.03327171822003432
-0.11195765141043862      0.40324858292617355      0.033083953729074446
-2                        1.4383577247864943       0.0678857425876431
-2                        1.2024372191834916       0.06292264648562483
-1.8102250904199269       1.3218538434612288       0.06541536470374357
1.060051832128381         -2.1                     0.008351407409000621
1.295455836665455         -2.1                     0.0070656745856590986
1.1802724333881178        -1.9121585231134839      0.007618561692579505
1.125026545438824         -0.1                     0
0.9855914897201027        -0.1                     0
1.0526738918134877        -0.21908653224120095     0.0010471132192098546
0                         0.4654409456151904       0.03327171822003432
0                         0.610624405923613        0.03855045285213127
-0.12289197340930254      0.5418004846451476       0.03780770935680645
-2                        1.6742782303894965       0.07284894331802531
-2                        1.4383577247864943       0.0678857425876431
-1.8117366697933595       1.5575821788674828       0.07041342998915269
1.295455836665455         -2.1                     0.0070656745856590986
1.530859841202528         -2.1                     0.005948479737294534
1.415644348200134         -1.9131497033115414      0.006422742607363796
1.2644616011575456        -0.1                     0
1.125026545438824         -0.1                     0
1.192874707343497         -0.22084913007607143     9.050286367316461E-4
1.4038966568762674        -0.1                     0
1.2644616011575456        -0.1                     0
1.332907164897741         -0.22178949665731593     7.864380053619333E-4
0                         0.610624405923613        0.03855045285213127
0                         0.7710264798716884       0.044377765547919536
-0.13536872088927018      0.6951252260151842       0.04307946300088014
-2                        1.910198735992499        0.07772606494536562
-2                        1.6742782303894965       0.07284894331802531
-1.8133091131503543       1.7928042318094808       0.07535555427502068
1.530859841202528         -2.1                     0.005948479737294534
1.7662638457396016        -2.1                     0.004989602566247487
1.6509678419102916        -1.913947536518745       0.0053930058811743455
1.5433317125949886        -0.1                     0
1.4038966568762674        -0.1                     0
1.4728399671468908        -0.22170163536203236     6.83693892806111E-4
1.6827667683137104        -0.1                     0
1.5433317125949886        -0.1                     0
1.6126369874543267        -0.22130472154584246     5.968246576538981E-4
0                         0.7710264798716884       0.044377765547919536
0                         0.9482303952029425       0.050785135535909874
-0.14885945969644046      0.8648426735342333       0.04889826701391561
-2                        2.146119241595502        0.08243486735463816
-2                        1.910198735992499        0.07772606494536562
-1.8142915345256305       2.0277163781428866       0.08016203091556479
1.7662638457396016        -2.1                     0.004989602566247487
2.001667850276675         -2.1                     0.004174125966276137
1.8862179694928296        -1.9145872085847693      0.0045152978557733685
1.8222018240324316        -0.1                     0
1.6827667683137104        -0.1                     0
1.7524205024856452        -0.22053470949905415     5.21964943356268E-4
0                         0.9482303952029425       0.050785135535909874
0                         1.1439937446136246       0.05782037835354759
-0.16192274258080808      1.0514843059799799       0.055239216996069776
-2                        2.382039747198504        0.08690007482188075
-2                        2.146119241595502        0.08243486735463816
-1.8145440777929016       2.2632242380517997       0.08477225897390211
2.001667850276675         -2.1                     0.004174125966276137
2.2370718548137485        -2.1                     0.0034852369042550624
2.1212403142882224        -1.9149067733046004      0.003773029667154925
1.9616368797511532        -0.1                     0
1.8222018240324316        -0.1                     0
1.8921889778912155        -0.21910083407876818     4.556874935251814E-4
0                         1.1439937446136246       0.05782037835354759
0                         1.3588800130833947       0.06548834326458132
-0.1732581259874024       1.2542482820910217       0.062048999657006866
-2                        2.617960252801507        0.09105706166427906
-2                        2.382039747198504        0.08690007482188075
-1.8145535266948256       2.4988131618576177       0.08910387671616755
2.2370718548137485        -2.1                     0.0034852369042550624
2.4724758593508214        -2.1                     0.0029060824974093597
2.3561757520121613        -1.9147880629664602      0.0031481459697907527
2.101071935469875         -0.1                     0
1.9616368797511532        -0.1                     0
2.0316898183392325        -0.21925732829813563     4.044038831771213E-4
0                         1.3588800130833947       0.06548834326458132
0                         1.5858597535302605       0.07351596489608479
-0.1795084219252066       1.473580209319907        0.06932291788961395
0                         1.5858597535302605       0.07351596489608479
0                         1.8143948151476934       0.08149750559729918
-0.18186824464524037      1.6998398195295814       0.07672828372331236
-2                        2.853880758404509        0.0948564773728734
-2                        2.617960252801507        0.09105706166427906
-1.8145862475632197       2.734488951757493        0.09309743034129714
2.4724758593508214        -2.1                     0.0029060824974093597
2.707879863887895         -2.1                     0.002420847046228151
2.5899536735415256        -1.9134352851616074      0.0026259956534156036
2.2405069911885964        -0.1                     0
2.101071935469875         -0.1                     0
2.170954403518864         -0.21946306339801872     3.5993560179099884E-4
2.379942046907318         -0.1                     0
2.2405069911885964        -0.1                     0
2.309867120532118         -0.22014465275618314     3.2229984470953904E-4
2.519377102626039         -0.1                     0
2.379942046907318         -0.1                     0
2.4488005906732924        -0.2209684430572204      2.893330953787187E-4
2.658812158344761         -0.1                     0
2.519377102626039         -0.1                     0
2.5880989398843437        -0.22170854871881326     2.597634953921324E-4
2.7982472140634824        -0.1                     0
2.658812158344761         -0.1                     0
2.7277088914998533        -0.22229159769563386     2.3306006703873968E-4
2.937682269782204         -0.1                     0
2.7982472140634824        -0.1                     0
2.8673465975262697        -0.22265964559435705     2.08877817227684E-4
0                         1.8143948151476934       0.08149750559729918
0                         2.0429298767651267       0.08932784763382921
-0.18216771003371712      1.9273041279334155       0.0840350376496383
0                         2.0429298767651267       0.08932784763382921
0                         2.2714649383825596       0.09692647857628837
-0.18229260576086537      2.1562463098664746       0.0911687943688352
-2                        3.0898012640075114       0.09826980463499031
-2                        2.853880758404509        0.0948564773728734
-1.8147035551189845       2.970305247884012        0.09671170784966876
2.707879863887895         -2.1                     0.002420847046228151
2.9432838684249694        -2.1                     0.0020152806200331845
2.825796342759402         -1.9132455382417968      0.0021856053318146922
3.077117325500925         -0.1                     0
2.937682269782204         -0.1                     0
3.006845660651237         -0.22280196545492512     1.8698833766397444E-4
3.216552381219647         -0.1                     0
3.077117325500925         -0.1                     0
3.146241572668467         -0.2227424114060532      1.6720851416764085E-4
0                         2.2714649383825596       0.09692647857628837
0                         2.499999999999993        0.10417172012246975
-0.1823419249881126       2.385524144460483        0.09798221095434431
-2                        3.3257217696105137       0.10129541232958965
-2                        3.0898012640075114       0.09826980463499031
-1.8147743583868332       3.2062665836821345       0.09992839119616145
2.9432838684249694        -2.1                     0.0020152806200331845
3.178687872962042         -2.1                     0.0016768742911862048
3.0614391638272775        -1.912865551540289       0.0018183733550164833
3.355987436938369         -0.1                     0
3.216552381219647         -0.1                     0
3.2856120273994947        -0.22253224234583127     1.4939546743445226E-4
3.4954224926570903        -0.1                     0
3.355987436938369         -0.1                     0
3.425086090583705         -0.22232270811302624     1.3350829662517815E-4
0                         2.499999999999993        0.10417172012246975
0                         2.7285350616174258       0.11088649697449082
-0.1822236976140133       2.614944241793911        0.10432200134207185
0                         2.7285350616174258       0.11088649697449082
0                         2.957070123234859        0.11681999839311402
-0.18182831952101428      2.844479394520134        0.10999110351422724
-2                        3.561642275213515        0.1039640911984796
-2                        3.3257217696105137       0.10129541232958965
-1.814508241982538        3.4422189006433794       0.10275761762357345
3.178687872962042         -2.1                     0.0016768742911862048
3.4140918774991156        -2.1                     0.001394839180753037
3.2970061712504695        -1.9127564014644418      0.0015124378705730665
3.6348575483758117        -0.1                     0
3.4954224926570903        -0.1                     0
3.564745989017066         -0.22231573791816542     1.1951793684785963E-4
3.774292604094533         -0.1                     0
3.6348575483758117        -0.1                     0
3.704437425395104         -0.22251683930070898     1.0719267633179711E-4
0                         2.957070123234859        0.11681999839311402
0                         3.185605184852292        0.12162596204046047
-0.18103431719503904      3.0739776433646573       0.11472952535281211
-2                        3.797562780816517        0.10634239720599434
-2                        3.561642275213515        0.1039640911984796
-1.8134260535470643       3.6778830759728005       0.10524451998220537
3.4140918774991156        -2.1                     0.001394839180753037
3.6494958820361894        -2.1                     0.0011599776998700887
3.5325985356809597        -1.9130223104015338      0.0012576913172828725
3.913727659813255         -0.1                     0
3.774292604094533         -0.1                     0
3.844001964580865         -0.2227039137934069      9.615144691532489E-5
4.053162715531976         -0.1                     0
3.913727659813255         -0.1                     0
3.983533451182107         -0.22272860799811336     8.614633212122859E-5
0                         3.185605184852292        0.12162596204046047
0                         3.4141402464697252       0.1248409728269336
-0.17941097912602774      3.302977961818844        0.11821464931753099
0                         3.4141402464697252       0.1248409728269336
0                         3.641119986916597        0.12587367709966663
-0.17613686177319635      3.5289963861416385       0.1200734819360405
0                         3.641119986916597        0.12587367709966663
0                         3.8560062553863665       0.12424160129110268
-0.1690979428154845       3.7473075363988624       0.12002870651160244
0                         3.8560062553863665       0.12424160129110268
0                         4.051769604797049        0.12001790127697401
-0.15879845081525432      3.951390900587333        0.11796745211351733
-2                        4.0334832864195205       0.10853152331414324
-2                        3.797562780816517        0.10634239720599434
-1.812388910890345        3.9139707177051837       0.1074802775132807
3.6494958820361894        -2.1                     0.0011599776998700887
3.8848998865732622        -2.1                     9.645109181580453E-4
3.768076711339408         -1.9134476851189879      0.001045785560524122
4.192597771250697         -0.1                     0
4.053162715531976         -0.1                     0
4.123173315966267         -0.22265607970849863     7.712223016802236E-5
4.332032826969419         -0.1                     0
4.192597771250697         -0.1                     0
4.262887984957112         -0.2225697145639814      6.903695370934988E-5
0                         4.051769604797049        0.12001790127697401
0                         4.228973520128305        0.11361573810754845
-0.14640986302166575      4.137549911688174        0.11407083256674727
-2                        4.269403792022521        0.11065945792242443
-2                        4.0334832864195205       0.10853152331414324
-1.8112369623242779       4.150177172422889        0.10958074538208479
3.8848998865732622        -2.1                     9.645109181580453E-4
4.120303891110336         -2.1                     8.018952842759676E-4
4.003253548477235         -1.9137409163502896      8.696722543820918E-4
4.471467882688141         -0.1                     0
4.332032826969419         -0.1                     0
4.402591687730564         -0.22245830723910032     6.179104275345437E-5
4.610902938406863         -0.1                     0
4.471467882688141         -0.1                     0
4.542291634883714         -0.22231805150883424     5.529548135320222E-5
0                         4.228973520128305        0.11361573810754845
0                         4.389375594076383        0.10562533611767408
-0.13478616034299182      4.306646857114516        0.10867138474054931
-2                        4.505324297625524        0.11286494301475052
-2                        4.269403792022521        0.11065945792242443
-1.8108990640579306       4.3863985952651126       0.1116878364368869
4.120303891110336         -2.1                     8.018952842759676E-4
4.35570789564741          -2.1                     6.666466759659553E-4
4.238223236357064         -1.9136704712417378      7.232449546168626E-4
4.750337994125584         -0.1                     0
4.610902938406863         -0.1                     0
4.681973398034401         -0.222155867764129       4.947653530310719E-5
0                         4.389375594076383        0.10562533611767408
0                         4.534559054384806        0.096762235863619
-0.12390885147414508      4.460050095550938        0.10230730150483444
0                         4.534559054384806        0.096762235863619
0                         4.665978634744171        0.08785485589067182
-0.11431750405086824      4.598908349427916        0.09564118801759165
-2                        4.7412448032285255       0.11527405038453888
-2                        4.505324297625524        0.11286494301475052
-1.810825790900088        4.622746456789798        0.1139481459961867
4.8897730498443055        -0.1                     0
4.750337994125584         -0.1                     0
4.82158565554097          -0.22194589576647897     4.425643997179654E-5
4.35570789564741          -2.1                     6.666466759659553E-4
4.591111900184483         -2.1                     5.541805634778859E-4
4.473364488870661         -1.913217936025103       6.013300812981913E-4
5.029208105563027         -0.1                     0
4.8897730498443055        -0.1                     0
4.961178047977154         -0.2217109037287116      3.95805046288449E-5
0                         4.665978634744171        0.08785485589067182
0                         4.785352746330957        0.0798116813428184
-0.10616172329562268      4.724920711233303        0.08941378420666217
-2                        4.977165308831528        0.1179733824329425
-2                        4.7412448032285255       0.11527405038453888
-1.810934242614844        4.8591477658263225       0.11648050714478839
4.591111900184483         -2.1                     5.541805634778859E-4
4.826515904721557         -2.1                     4.6067137794315123E-4
4.70881662155852          -1.9126859944033898      4.998194977406252E-4
5.168643161281748         -0.1                     0
5.029208105563027         -0.1                     0
5.100788308544586         -0.22157220136551412     3.542670621474878E-5
0                         4.785352746330957        0.0798116813428184
0                         4.896093599842548        0.07370137524988189
-0.09875504944445097      4.840263815955695        0.08437480566368903
-2                        5.21308581443453         0.12098679720726936
-2                        4.977165308831528        0.1179733824329425
-1.8109653461710749       5.095612306736077        0.1193493789820144
-2                        5.449006320037531        0.12426307539338372
-2                        5.21308581443453         0.12098679720726936
-1.8104698060615043       5.332418170827913        0.12254702029820319
4.826515904721557         -2.1                     4.6067137794315123E-4
5.061919909258631         -2.1                     3.8293087594332983E-4
4.944317778872884         -1.912532314174615       4.154357337063293E-4
5.308078217000469         -0.1                     0
5.168643161281748         -0.1                     0
5.2402854346454175        -0.22163605167058242     3.1764884214590526E-5
0                         4.896093599842548        0.07370137524988189
0                         5                        0.07097424790044102
-0.09752139268225549      4.944990626336669        0.0818283087972115
-2                        5.6849268256405345       0.1276790179223378
-2                        5.449006320037531        0.12426307539338372
-1.8095149671305624       5.569514327014867        0.12598108299201277
5.447513272719191         -0.1                     0
5.308078217000469         -0.1                     0
5.379471834422474         -0.2218116247760093      2.8514965641163305E-5
5.061919909258631         -2.1                     3.8293087594332983E-4
5.297323913795703         -2.1                     3.1830401750805246E-4
5.179835162781797         -1.9126174191717071      3.4529703667742385E-4
5.586948328437913         -0.1                     0
5.447513272719191         -0.1                     0
5.518295822878883         -0.22178694500657162     2.556314228939998E-5
5.726383384156634         -0.1                     0
5.586948328437913         -0.1                     0
5.65697084260933          -0.22167894489010276     2.2904120393955225E-5
0                         5                        0.07097424790044102
0.09725799567993704       5                        0.05613422123920872
0.04549028241684818       5.084242024656803        0.06574212666951136
-2                        5.920847331243536        0.13105712603652536
-2                        5.6849268256405345       0.1276790179223378
-1.8068187192012128       5.80682498208139         0.1294888625772676
-2                        6.156767836846538        0.1341920249416102
-2                        5.920847331243536        0.13105712603652536
-1.8026107942666219       6.047812453281348        0.13291287763787787
5.297323913795703         -2.1                     3.1830401750805246E-4
5.532727918332776         -2.1                     2.6458104870599476E-4
5.415313699135471         -1.9127954095606348      2.8700811216567795E-4
5.865818439875356         -0.1                     0
5.726383384156634         -0.1                     0
5.795592355771693         -0.22128094252934744     2.0473861342915787E-5
6.0052534955940775        -0.1                     0
5.865818439875356         -0.1                     0
5.934404023592075         -0.2209415381826476      1.8307473330617024E-5
0.09725799567993704       5                        0.05613422123920872
0.18706786716800028       5                        0.035711183712110066
0.1341775722796173        5.076781767364179        0.0489718221159156
0.18706786716800028       5                        0.035711183712110066
0.27                      5                        0
0.20588771972661823       5.079897859618956        0.029189948799597087
-2                        6.39268834244954         0.1368791911791325
-2                        6.156767836846538        0.1341920249416102
-1.8062875574423924       6.274961294297851        0.13579070461727472
-2                        6.628608848052542        0.13893862797804984
-2                        6.39268834244954         0.1368791911791325