% Model:                CdZnTE_280211_2D_SE_WP_Cathode.mph
% Version:              COMSOL 4.1.0.88
% Date:                 Jul 11 2011, 14:17
% Dimension:            2
% Nodes:                56934
% Expressions:          1
% Description:          Electric potential
% x                       y                        V (V)
-2                        -1.8645293522661046      0.0061144508366140875
-2                        -2.1                     0.006076645145349454
-1.846364360343395        -1.9401710821195468      0.006077916002096569
-2                        -2.1                     0.006076645145349454
-1.764796222180569        -2.1                     0.006039048528836271
-1.846364360343395        -1.9401710821195468      0.006077916002096569
-2                        -1.6286088480525398      0.006228927586038979
-2                        -1.8645293522661046      0.0061144508366140875
-1.8245167365948494       -1.7449367782940313      0.006141373421973864
-2                        -1.3926883424495373      0.006422261547062075
-2                        -1.6286088480525398      0.006228927586038979
-1.8168623695316584       -1.512189523512412       0.006290110481397732
-1.764796222180569        -2.1                     0.006039048528836271
-1.529392217779427        -2.1                     0.005926945940634
-1.6425247983867886       -1.8914043628477542      0.006018954684167333
-2                        -1.1567678368465348      0.006697736701031139
-2                        -1.3926883424495373      0.006422261547062075
-1.8122455777218598       -1.2767049080338484      0.006520603930601703
-1.529392217779427        -2.1                     0.005926945940634
-1.2939882132423535       -2.1                     0.005742791026866915
-1.3989614082807784       -1.9110406672624995      0.0058561717557156995
-2                        -0.920847331243532       0.007059118720081316
-2                        -1.1567678368465348      0.006697736701031139
-1.8109836351205506       -1.0405681798744235      0.0068365842273288464
-1.2939882132423535       -2.1                     0.005742791026866915
-1.05858420870528         -2.1                     0.005491025559064149
-1.1696308739542287       -1.909293466203794       0.0056390842648761765
-2                        -0.6849268256405294      0.007509742450476458
-2                        -0.920847331243532       0.007059118720081316
-1.810295659913922        -0.8045304929098868      0.007240661857252349
-1.05858420870528         -2.1                     0.005491025559064149
-0.8231802041682066       -2.1                     0.005178383385777294
-0.9374566002124125       -1.908700173002049       0.005355981870184182
-2                        -0.4490063200375265      0.008051315012014016
-2                        -0.6849268256405294      0.007509742450476458
-1.8097491300494364       -0.5683692088677957      0.007736254773292364
-0.8231802041682066       -2.1                     0.005178383385777294
-0.587776199631133        -2.1                     0.0048142391306716685
-0.702442025043489        -1.9095207699513645      0.005012406777128333
-2                        -0.21308581443452423     0.008682567450878663
-2                        -0.4490063200375265      0.008051315012014016
-1.8097640917460813       -0.3318487261805915      0.008325139986371992
-0.587776199631133        -2.1                     0.0048142391306716685
-0.3523721950940597       -2.1                     0.004410692103080798
-0.4672480472817225       -1.9100923020549863      0.004622267227185984
-2                        0.02283469116847825      0.009398013486787923
-2                        -0.21308581443452423     0.008682567450878663
-1.8105412062410897       -0.0958658833976639      0.009002144403391905
-0.3523721950940597       -2.1                     0.004410692103080798
-0.11696819055698615      -2.1                     0.00398218185312241
-0.23252005099952355      -1.9100649405128722      0.004200233493817167
-2                        0.2587551967714812       0.010187151355171398
-2                        0.02283469116847825      0.009398013486787923
-1.8110785387248838       0.14021195088646163      0.009760728423283932
-0.11696819055698615      -2.1                     0.00398218185312241
0.11843581398008718       -2.1                     0.003544493908883857
0.0028064179962684482     -1.9097863682838865      0.003759940355202671
0.3639115504057773        -0.1                     0
0.27                      -0.1                     0
0.3155232914343534        -0.1891591978532564      9.847533853855996E-4
0.18706786716800006       0                        0.0022848207263624983
0.09725799567993655       0                        0.003579967009232315
0.136474273000267         -0.06484323953093968     0.0027127780850493056
0.09725799567993655       0                        0.003579967009232315
0                         0                        0.004579382670058108
0.04825893493545653       -0.083540921452322       0.003709673150592832
-2                        0.49467570237448366      0.011034376187467035
-2                        0.2587551967714812       0.010187151355171398
-1.8108872450663813       0.37611999723855494      0.010586734239192878
0.11843581398008718       -2.1                     0.003544493908883857
0.3538398185171605        -2.1                     0.003113224742041218
0.23790455401201951       -1.9095195768809718      0.0033192857307282895
0.4676574669449062        -0.1                     0
0.3639115504057773        -0.1                     0
0.41484073698070734       -0.19607074930896257     6.696008765713503E-4
0.27                      -0.1                     0
0.27                      0                        0
0.2093597961748373        -0.058752783995909975    0.0014888931380514793
0.27                      0                        0
0.18706786716800006       0                        0.0022848207263624983
0.2093597961748373        -0.058752783995909975    0.0014888931380514793
0                         0                        0.004579382670058108
0                         0.10390640015745226      0.005305241656347625
-0.09240933680645019      0.05644175854491199      0.005642144318301005
-2                        0.7305962079774864       0.011919680834081235
-2                        0.49467570237448366      0.011034376187467035
-1.8102978591166694       0.6121077323603339       0.011462884055569736
0.3538398185171605        -2.1                     0.003113224742041218
0.5892438230542343        -2.1                     0.0027020660885618535
0.47351012803695564       -1.9096142074834344      0.002892317698798794
0.5822677116210757        -0.1                     0
0.4676574669449062        -0.1                     0
0.5254387392722403        -0.19828333020975616     4.93121728902783E-4
0                         0.10390640015745226      0.005305241656347625
0                         0.21464725366904303      0.006263163131734588
-0.09413192195342449      0.162719619652995        0.006387195641353639
-2                        0.9665167135804887       0.012819973860200798
-2                        0.7305962079774864       0.011919680834081235
-1.809636460660011        0.8481252817224755       0.012366875513089477
0.5892438230542343        -2.1                     0.0027020660885618535
0.8246478275913076        -2.1                     0.002321429709871251
0.7092119849183914        -1.9101441564387935      0.002492423488731643
0.7088801016846716        -0.1                     0
0.5822677116210757        -0.1                     0
0.6463164295287661        -0.20419523662202613     4.0063847875584636E-4
0                         0.21464725366904303      0.006263163131734588
0                         0.33402136525582626      0.007395501634876446
-0.10238192627319108      0.2773266173600838       0.0073365767080613275
-2                        1.2024372191834916       0.013710714448651207
-2                        0.9665167135804887       0.012819973860200798
-1.8093966065345832       1.0848785704694899       0.013276787823725074
0.8246478275913076        -2.1                     0.002321429709871251
1.060051832128381         -2.1                     0.0019778150215793147
0.944810122475995         -1.9110638723910947      0.00212848148051802
0.8462977796009774        -0.1                     0
0.7088801016846716        -0.1                     0
0.7768427587250946        -0.20990692940404454     3.3641986682286123E-4
0.9855914897201027        -0.1                     0
0.8462977796009774        -0.1                     0
0.913331841434306         -0.21558011435769117     2.8963434379391937E-4
0                         0.33402136525582626      0.007395501634876446
0                         0.4654409456151904       0.008679990553393545
-0.11195765141043862      0.40324858292617355      0.008438029679853356
-2                        1.4383577247864943       0.014567564010451062
-2                        1.2024372191834916       0.013710714448651207
-1.8102250904199269       1.3218538434612288       0.014165015189550201
1.060051832128381         -2.1                     0.0019778150215793147
1.295455836665455         -2.1                     0.0016739860290423797
1.1802724333881178        -1.9121585231134839      0.0018047955742371284
1.125026545438824         -0.1                     0
0.9855914897201027        -0.1                     0
1.0526738918134877        -0.21908653224120095     2.49678005528362E-4
0                         0.4654409456151904       0.008679990553393545
0                         0.610624405923613        0.010097125786571313
-0.12289197340930254      0.5418004846451476       0.009666579866509786
-2                        1.6742782303894965       0.015367860949086314
-2                        1.4383577247864943       0.014567564010451062
-1.8117366697933595       1.5575821788674828       0.015001860457467282
1.295455836665455         -2.1                     0.0016739860290423797
1.530859841202528         -2.1                     0.0014097120997429184
1.415644348200134         -1.9131497033115414      0.0015219990778700815
1.2644616011575456        -0.1                     0
1.125026545438824         -0.1                     0
1.192874707343497         -0.22084913007607143     2.1553953008462742E-4
1.4038966568762674        -0.1                     0
1.2644616011575456        -0.1                     0
1.332907164897741         -0.22178949665731593     1.8712567127780917E-4
0                         0.610624405923613        0.010097125786571313
0                         0.7710264798716884       0.011632192031705369
-0.13536872088927018      0.6951252260151842       0.011008603083352376
-2                        1.910198735992499        0.016091844301887058
-2                        1.6742782303894965       0.015367860949086314
-1.8133091131503543       1.7928042318094808       0.015768965541823443
1.530859841202528         -2.1                     0.0014097120997429184
1.7662638457396016        -2.1                     0.0011827186114818761
1.6509678419102916        -1.913947536518745       0.0012782766647206041
1.5433317125949886        -0.1                     0
1.4038966568762674        -0.1                     0
1.4728399671468908        -0.22170163536203236     1.6256480587700046E-4
1.6827667683137104        -0.1                     0
1.5433317125949886        -0.1                     0
1.6126369874543267        -0.22130472154584246     1.4183243791090556E-4
0                         0.7710264798716884       0.011632192031705369
0                         0.9482303952029425       0.013270567164507464
-0.14885945969644046      0.8648426735342333       0.01244543922856306
-2                        2.146119241595502        0.016723649465204056
-2                        1.910198735992499        0.016091844301887058
-1.8142915345256305       2.0277163781428866       0.016449587640487543
1.7662638457396016        -2.1                     0.0011827186114818761
2.001667850276675         -2.1                     9.895685249045637E-4
1.8862179694928296        -1.9145872085847693      0.0010704136645997512
1.8222018240324316        -0.1                     0
1.6827667683137104        -0.1                     0
1.7524205024856452        -0.22053470949905415     1.239896543463933E-4
0                         0.9482303952029425       0.013270567164507464
0                         1.1439937446136246       0.014991566705287151
-0.16192274258080808      1.0514843059799799       0.013948329410913205
-2                        2.382039747198504        0.017252121124602303
-2                        2.146119241595502        0.016723649465204056
-1.8145440777929016       2.2632242380517997       0.017032647830598546
2.001667850276675         -2.1                     9.895685249045637E-4
2.2370718548137485        -2.1                     8.263392947488034E-4
2.1212403142882224        -1.9149067733046004      8.945523479735541E-4
1.9616368797511532        -0.1                     0
1.8222018240324316        -0.1                     0
1.8921889778912155        -0.21910083407876818     1.0820963351498728E-4
0                         1.1439937446136246       0.014991566705287151
0                         1.3588800130833947       0.016751319552553517
-0.1732581259874024       1.2542482820910217       0.015476530001931367
-2                        2.617960252801507        0.017671486685321595
-2                        2.382039747198504        0.017252121124602303
-1.8145535266948256       2.4988131618576177       0.01750764458530402
2.2370718548137485        -2.1                     8.263392947488034E-4
2.4724758593508214        -2.1                     6.890744573124822E-4
2.3561757520121613        -1.9147880629664602      7.46458572228062E-4
2.101071935469875         -0.1                     0
1.9616368797511532        -0.1                     0
2.0316898183392325        -0.21925732829813563     9.600620749722629E-5
0                         1.3588800130833947       0.016751319552553517
0                         1.5858597535302605       0.01843674072584136
-0.1795084219252066       1.473580209319907        0.017001511192803867
0                         1.5858597535302605       0.01843674072584136
0                         1.8143948151476934       0.01992456466583287
-0.18186824464524037      1.6998398195295814       0.018415722856431834
-2                        2.853880758404509        0.01798189958670574
-2                        2.617960252801507        0.017671486685321595
-1.8145862475632197       2.734488951757493        0.017871354797968784
2.4724758593508214        -2.1                     6.890744573124822E-4
2.707879863887895         -2.1                     5.740477058591742E-4
2.5899536735415256        -1.9134352851616074      6.226865321707474E-4
2.2405069911885964        -0.1                     0
2.101071935469875         -0.1                     0
2.170954403518864         -0.21946306339801872     8.543146634122076E-5
2.379942046907318         -0.1                     0
2.2405069911885964        -0.1                     0
2.309867120532118         -0.22014465275618314     7.648582300661847E-5
2.519377102626039         -0.1                     0
2.379942046907318         -0.1                     0
2.4488005906732924        -0.2209684430572204      6.865329099535723E-5
2.658812158344761         -0.1                     0
2.519377102626039         -0.1                     0
2.5880989398843437        -0.22170854871881326     6.163043851693204E-5
2.7982472140634824        -0.1                     0
2.658812158344761         -0.1                     0
2.7277088914998533        -0.22229159769563386     5.52901904385007E-5
2.937682269782204         -0.1                     0
2.7982472140634824        -0.1                     0
2.8673465975262697        -0.22265964559435705     4.954992674474775E-5
0                         1.8143948151476934       0.01992456466583287
0                         2.0429298767651267       0.021172233652785255
-0.18216771003371712      1.9273041279334155       0.019646575613979117
0                         2.0429298767651267       0.021172233652785255
0                         2.2714649383825596       0.02214959710572371
-0.18229260576086537      2.1562463098664746       0.02065830905748981
-2                        3.0898012640075114       0.01818982785822988
-2                        2.853880758404509        0.01798189958670574
-1.8147035551189845       2.970305247884012        0.01812682378584738
2.707879863887895         -2.1                     5.740477058591742E-4
2.9432838684249694        -2.1                     4.77894211654946E-4
2.825796342759402         -1.9132455382417968      5.18279992780434E-4
3.077117325500925         -0.1                     0
2.937682269782204         -0.1                     0
3.006845660651237         -0.22280196545492512     4.4354901033657295E-5
3.216552381219647         -0.1                     0
3.077117325500925         -0.1                     0
3.146241572668467         -0.2227424114060532      3.966126753882503E-5
0                         2.2714649383825596       0.02214959710572371
0                         2.499999999999993        0.022827704994232353
-0.1823419249881126       2.385524144460483        0.021416646621903426
-2                        3.3257217696105137       0.01830821501886254
-2                        3.0898012640075114       0.01818982785822988
-1.8147743583868332       3.2062665836821345       0.018283564147401236
2.9432838684249694        -2.1                     4.77894211654946E-4
3.178687872962042         -2.1                     3.9765604445543307E-4
3.0614391638272775        -1.912865551540289       4.312088970782156E-4
3.355987436938369         -0.1                     0
3.216552381219647         -0.1                     0
3.2856120273994947        -0.22253224234583127     3.543484060848135E-5
3.4954224926570903        -0.1                     0
3.355987436938369         -0.1                     0
3.425086090583705         -0.22232270811302624     3.1665705404581185E-5
0                         2.499999999999993        0.022827704994232353
0                         2.7285350616174258       0.023180128179299726
-0.1822236976140133       2.614944241793911        0.021897437003750783
0                         2.7285350616174258       0.023180128179299726
0                         2.957070123234859        0.023184563407987746
-0.18182831952101428      2.844479394520134        0.022081718075855777
-2                        3.561642275213515        0.01835629415013491
-2                        3.3257217696105137       0.01830821501886254
-1.814508241982538        3.4422189006433794       0.018357666381033998
3.178687872962042         -2.1                     3.9765604445543307E-4
3.4140918774991156        -2.1                     3.3077961622018156E-4
3.2970061712504695        -1.9127564014644418      3.5866621625839736E-4
3.6348575483758117        -0.1                     0
3.4954224926570903        -0.1                     0
3.564745989017066         -0.22231573791816542     2.8346813183800393E-5
3.774292604094533         -0.1                     0
3.6348575483758117        -0.1                     0
3.704437425395104         -0.22251683930070898     2.542309616301649E-5
0                         2.957070123234859        0.023184563407987746
0                         3.185605184852292        0.022824687657877006
-0.18103431719503904      3.0739776433646573       0.021956386117985477
-2                        3.797562780816517        0.018358893126485355
-2                        3.561642275213515        0.01835629415013491
-1.8134260535470643       3.6778830759728005       0.0183715466249088
3.4140918774991156        -2.1                     3.3077961622018156E-4
3.6494958820361894        -2.1                     2.750866113639835E-4
3.5325985356809597        -1.9130223104015338      2.982584233355667E-4
3.913727659813255         -0.1                     0
3.774292604094533         -0.1                     0
3.844001964580865         -0.2227039137934069      2.2804096909331112E-5
4.053162715531976         -0.1                     0
3.913727659813255         -0.1                     0
3.983533451182107         -0.22272860799811336     2.043096203678839E-5
0                         3.185605184852292        0.022824687657877006
0                         3.4141402464697252       0.022092183493563188
-0.17941097912602774      3.302977961818844        0.021518551016776345
0                         3.4141402464697252       0.022092183493563188
0                         3.641119986916597        0.02099749891021172
-0.17613686177319635      3.5289963861416385       0.020785135356126548
0                         3.641119986916597        0.02099749891021172
0                         3.8560062553863665       0.019636170094322964
-0.1690979428154845       3.7473075363988624       0.019807220303161364
0                         3.8560062553863665       0.019636170094322964
0                         4.051769604797049        0.018140580030820308
-0.15879845081525432      3.951390900587333        0.018660371075768113
-2                        4.0334832864195205       0.01834503669222664
-2                        3.797562780816517        0.018358893126485355
-1.812388910890345        3.9139707177051837       0.018352616281636286
3.6494958820361894        -2.1                     2.750866113639835E-4
3.8848998865732622        -2.1                     2.287339216174826E-4
3.768076711339408         -1.9134476851189879      2.480077555334391E-4
4.192597771250697         -0.1                     0
4.053162715531976         -0.1                     0
4.123173315966267         -0.22265607970849863     1.8290583960486923E-5
4.332032826969419         -0.1                     0
4.192597771250697         -0.1                     0
4.262887984957112         -0.2225697145639814      1.637292895570358E-5
0                         4.051769604797049        0.018140580030820308
0                         4.228973520128305        0.01660062799856638
-0.14640986302166575      4.137549911688174        0.017427179991176663
-2                        4.269403792022521        0.018345698650490502
-2                        4.0334832864195205       0.01834503669222664
-1.8112369623242779       4.150177172422889        0.018332012130837357
3.8848998865732622        -2.1                     2.287339216174826E-4
4.120303891110336         -2.1                     1.9017069671464266E-4
4.003253548477235         -1.9137409163502896      2.0624383986365797E-4
4.471467882688141         -0.1                     0
4.332032826969419         -0.1                     0
4.402591687730564         -0.22245830723910032     1.4654388244667966E-5
4.610902938406863         -0.1                     0
4.471467882688141         -0.1                     0
4.542291634883714         -0.22231805150883424     1.3113835837039953E-5
0                         4.228973520128305        0.01660062799856638
0                         4.389375594076383        0.015082068137908158
-0.13478616034299182      4.306646857114516        0.016170783336353304
-2                        4.505324297625524        0.0183906603339064
-2                        4.269403792022521        0.018345698650490502
-1.8108990640579306       4.3863985952651126       0.01834198044193375
4.120303891110336         -2.1                     1.9017069671464266E-4
4.35570789564741          -2.1                     1.5809691900716205E-4
4.238223236357064         -1.9136704712417378      1.7151918276657165E-4
4.750337994125584         -0.1                     0
4.610902938406863         -0.1                     0
4.681973398034401         -0.222155867764129       1.1733774265790846E-5
0                         4.389375594076383        0.015082068137908158
0                         4.534559054384806        0.013639863743474603
-0.12390885147414508      4.460050095550938        0.014950861127626322
0                         4.534559054384806        0.013639863743474603
0                         4.665978634744171        0.01233026148207576
-0.11431750405086824      4.598908349427916        0.013828568055935955
-2                        4.7412448032285255       0.018504706151690944
-2                        4.505324297625524        0.0183906603339064
-1.810825790900088        4.622746456789798        0.018411888529736166
4.8897730498443055        -0.1                     0
4.750337994125584         -0.1                     0
4.82158565554097          -0.22194589576647897     1.0495753301166151E-5
4.35570789564741          -2.1                     1.5809691900716205E-4
4.591111900184483         -2.1                     1.31425673057128E-4
4.473364488870661         -1.913217936025103       1.4260723518701575E-4
5.029208105563027         -0.1                     0
4.8897730498443055        -0.1                     0
4.961178047977154         -0.2217109037287116      9.386797069745782E-6
0                         4.665978634744171        0.01233026148207576
0                         4.785352746330957        0.011220702692751532
-0.10616172329562268      4.724920711233303        0.012865863629667035
-2                        4.977165308831528        0.018703727006976333
-2                        4.7412448032285255       0.018504706151690944
-1.810934242614844        4.8591477658263225       0.018563974144491756
4.591111900184483         -2.1                     1.31425673057128E-4
4.826515904721557         -2.1                     1.0924989589764545E-4
4.70881662155852          -1.9126859944033898      1.185339562496316E-4
5.168643161281748         -0.1                     0
5.029208105563027         -0.1                     0
5.100788308544586         -0.22157220136551412     8.401678649786586E-6
0                         4.785352746330957        0.011220702692751532
0                         4.896093599842548        0.01040958005339143
-0.09875504944445097      4.840263815955695        0.012125053079182496
-2                        5.21308581443453         0.01899161138931785
-2                        4.977165308831528        0.018703727006976333
-1.8109653461710749       5.095612306736077        0.018809305467717707
-2                        5.449006320037531        0.019358828754001835
-2                        5.21308581443453         0.01899161138931785
-1.8104698060615043       5.332418170827913        0.0191455923323582
4.826515904721557         -2.1                     1.0924989589764545E-4
5.061919909258631         -2.1                     9.081358940826736E-5
4.944317778872884         -1.912532314174615       9.852220720640263E-5
5.308078217000469         -0.1                     0
5.168643161281748         -0.1                     0
5.2402854346454175        -0.22163605167058242     7.533242391789738E-6
0                         4.896093599842548        0.01040958005339143
0                         5                        0.010061644911492884
-0.09752139268225549      4.944990626336669        0.011767491320261616
-2                        5.6849268256405345       0.01978324023094478
-2                        5.449006320037531        0.019358828754001835
-1.8095149671305624       5.569514327014867        0.0195562862450535
5.447513272719191         -0.1                     0
5.308078217000469         -0.1                     0
5.379471834422474         -0.2218116247760093      6.762496415765783E-6
5.061919909258631         -2.1                     9.081358940826736E-5
5.297323913795703         -2.1                     7.548716122112097E-5
5.179835162781797         -1.9126174191717071      8.188864213850345E-5
5.586948328437913         -0.1                     0
5.447513272719191         -0.1                     0
5.518295822878883         -0.22178694500657162     6.062448965153253E-6
5.726383384156634         -0.1                     0
5.586948328437913         -0.1                     0
5.65697084260933          -0.22167894489010276     5.431843569165311E-6
0                         5                        0.010061644911492884
0.09725799567993704       5                        0.007828245535163918
0.04549028241684818       5.084242024656803        0.009260177788696982
-2                        5.920847331243536        0.020233017780603442
-2                        5.6849268256405345       0.01978324023094478
-1.8068187192012128       5.80682498208139         0.020012418063827316
-2                        6.156767836846538        0.020670924764202393
-2                        5.920847331243536        0.020233017780603442
-1.8026107942666219       6.047812453281348        0.02048406581503855
5.297323913795703         -2.1                     7.548716122112097E-5
5.532727918332776         -2.1                     6.274659423471272E-5
5.415313699135471         -1.9127954095606348      6.806524913233854E-5
5.865818439875356         -0.1                     0
5.726383384156634         -0.1                     0
5.795592355771693         -0.22128094252934744     4.855492376597291E-6
6.0052534955940775        -0.1                     0
5.865818439875356         -0.1                     0
5.934404023592075         -0.2209415381826476      4.341720977713288E-6
0.09725799567993704       5                        0.007828245535163918
0.18706786716800028       5                        0.0048916577446682106
0.1341775722796173        5.076781767364179        0.006804653019266103
0.18706786716800028       5                        0.0048916577446682106
0.27                      5                        0
0.20588771972661823       5.079897859618956        0.004010293534904669
-2                        6.39268834244954         0.0210591666140197
-2                        6.156767836846538        0.020670924764202393
-1.8062875574423924       6.274961294297851        0.020896898559435315