% Model:                CdZnTE_280211_2D_SE_WP_Cathode.mph
% Version:              COMSOL 4.1.0.88
% Date:                 Jul 11 2011, 14:33
% Dimension:            2
% Nodes:                56934
% Expressions:          1
% Description:          Electric potential
% x                       y                        V (V)
-2                        -1.8645293522661046      1.422325140126755E-5
-2                        -2.1                     1.4136782835013152E-5
-1.846364360343395        -1.9401710821195468      1.4139701266673103E-5
-2                        -2.1                     1.4136782835013152E-5
-1.764796222180569        -2.1                     1.4050765112533015E-5
-1.846364360343395        -1.9401710821195468      1.4139701266673103E-5
-2                        -1.6286088480525398      1.4484901192358453E-5
-2                        -1.8645293522661046      1.422325140126755E-5
-1.8245167365948494       -1.7449367782940313      1.4284883359249805E-5
-2                        -1.3926883424495373      1.492616671448454E-5
-2                        -1.6286088480525398      1.4484901192358453E-5
-1.8168623695316584       -1.512189523512412       1.4624865384567536E-5
-1.764796222180569        -2.1                     1.4050765112533015E-5
-1.529392217779427        -2.1                     1.3794113378855656E-5
-1.6425247983867886       -1.8914043628477542      1.4004879876843724E-5
-2                        -1.1567678368465348      1.5553505273450573E-5
-2                        -1.3926883424495373      1.492616671448454E-5
-1.8122455777218598       -1.2767049080338484      1.5150841094848553E-5
-1.529392217779427        -2.1                     1.3794113378855656E-5
-1.2939882132423535       -2.1                     1.3371976073650358E-5
-1.3989614082807784       -1.9110406672624995      1.3632175589310848E-5
-2                        -0.920847331243532       1.6373827081311524E-5
-2                        -1.1567678368465348      1.5553505273450573E-5
-1.8109836351205506       -1.0405681798744235      1.5870030390851696E-5
-1.2939882132423535       -2.1                     1.3371976073650358E-5
-1.05858420870528         -2.1                     1.2793830929798439E-5
-1.1696308739542287       -1.909293466203794       1.3134357340973377E-5
-2                        -0.6849268256405294      1.739218794978243E-5
-2                        -0.920847331243532       1.6373827081311524E-5
-1.810295659913922        -0.8045304929098868      1.6786391831753656E-5
-1.05858420870528         -2.1                     1.2793830929798439E-5
-0.8231802041682066       -2.1                     1.2074333135128482E-5
-0.9374566002124125       -1.908700173002049       1.248381716816266E-5
-2                        -0.4490063200375265      1.8608799455164096E-5
-2                        -0.6849268256405294      1.739218794978243E-5
-1.8097491300494364       -0.5683692088677957      1.7904725275623735E-5
-0.8231802041682066       -2.1                     1.2074333135128482E-5
-0.587776199631133        -2.1                     1.123428432188848E-5
-0.702442025043489        -1.9095207699513645      1.1692398525619693E-5
-2                        -0.21308581443452423     2.001571285415088E-5
-2                        -0.4490063200375265      1.8608799455164096E-5
-1.8097640917460813       -0.3318487261805915      1.922473955231191E-5
-0.587776199631133        -2.1                     1.123428432188848E-5
-0.3523721950940597       -2.1                     1.0300998603930842E-5
-0.4672480472817225       -1.9100923020549863      1.0791376922074295E-5
-2                        0.02283469116847825      2.1593846818138955E-5
-2                        -0.21308581443452423     2.001571285415088E-5
-1.8105412062410897       -0.0958658833976639      2.0728894712178334E-5
-0.3523721950940597       -2.1                     1.0300998603930842E-5
-0.11696819055698615      -2.1                     9.307547676929018E-6
-0.23252005099952355      -1.9100649405128722      9.81415285117448E-6
-2                        0.2587551967714812       2.33112157861347E-5
-2                        0.02283469116847825      2.1593846818138955E-5
-1.8110785387248838       0.14021195088646163      2.239487552472098E-5
-0.11696819055698615      -2.1                     9.307547676929018E-6
0.11843581398008718       -2.1                     8.290515132893866E-6
0.0028064179962684482     -1.9097863682838865      8.792130215661314E-6
0.3639115504057773        -0.1                     0
0.27                      -0.1                     0
0.3155232914343534        -0.1891591978532564      2.347358911665476E-6
0.18706786716800006       0                        5.6007356828307725E-6
0.09725799567993655       0                        8.715600090849781E-6
0.136474273000267         -0.06484323953093968     6.573519705913278E-6
0.09725799567993655       0                        8.715600090849781E-6
0                         0                        1.1082156925048675E-5
0.04825893493545653       -0.083540921452322       8.944363809324381E-6
-2                        0.49467570237448366      2.512302857289764E-5
-2                        0.2587551967714812       2.33112157861347E-5
-1.8108872450663813       0.37611999723855494      2.4181747565682288E-5
0.11843581398008718       -2.1                     8.290515132893866E-6
0.3538398185171605        -2.1                     7.286398014153435E-6
0.23790455401201951       -1.9095195768809718      7.767005163025076E-6
0.4676574669449062        -0.1                     0
0.3639115504057773        -0.1                     0
0.41484073698070734       -0.19607074930896257     1.5895177611289349E-6
0.27                      -0.1                     0
0.27                      0                        0
0.2093597961748373        -0.058752783995909975    3.6195957670133662E-6
0.27                      0                        0
0.18706786716800006       0                        5.6007356828307725E-6
0.2093597961748373        -0.058752783995909975    3.6195957670133662E-6
0                         0                        1.1082156925048675E-5
0                         0.10390640015745226      1.2924104332416464E-5
-0.09240933680645019      0.05644175854491199      1.3622811725775435E-5
-2                        0.7305962079774864       2.697383551226588E-5
-2                        0.49467570237448366      2.512302857289764E-5
-1.8102978591166694       0.6121077323603339       2.604022526885539E-5
0.3538398185171605        -2.1                     7.286398014153435E-6
0.5892438230542343        -2.1                     6.327505333806623E-6
0.47351012803695564       -1.9096142074834344      6.771854577127266E-6
0.5822677116210757        -0.1                     0
0.4676574669449062        -0.1                     0
0.5254387392722403        -0.19828333020975616     1.1671393742950958E-6
0                         0.10390640015745226      1.2924104332416464E-5
0                         0.21464725366904303      1.534657679255548E-5
-0.09413192195342449      0.162719619652995        1.549397657520667E-5
-2                        0.9665167135804887       2.8801252521271367E-5
-2                        0.7305962079774864       2.697383551226588E-5
-1.809636460660011        0.8481252817224755       2.7909287499589995E-5
0.5892438230542343        -2.1                     6.327505333806623E-6
0.8246478275913076        -2.1                     5.438612554521125E-6
0.7092119849183914        -1.9101441564387935      5.838395025032547E-6
0.7088801016846716        -0.1                     0
0.5822677116210757        -0.1                     0
0.6463164295287661        -0.20419523662202613     9.461654432132854E-7
0                         0.21464725366904303      1.534657679255548E-5
0                         0.33402136525582626      1.8202701030481108E-5
-0.10238192627319108      0.2773266173600838       1.7858886153081657E-5
-2                        1.2024372191834916       3.0540451326598194E-5
-2                        0.9665167135804887       2.8801252521271367E-5
-1.8093966065345832       1.0848785704694899       2.972829538154838E-5
0.8246478275913076        -2.1                     5.438612554521125E-6
1.060051832128381         -2.1                     4.635362487558592E-6
0.944810122475995         -1.9110638723910947      4.987873257632707E-6
0.8462977796009774        -0.1                     0
0.7088801016846716        -0.1                     0
0.7768427587250946        -0.20990692940404454     7.932027535626533E-7
0.9855914897201027        -0.1                     0
0.8462977796009774        -0.1                     0
0.913331841434306         -0.21558011435769117     6.820665848665503E-7
0                         0.33402136525582626      1.8202701030481108E-5
0                         0.4654409456151904       2.1428594347353382E-5
-0.11195765141043862      0.40324858292617355      2.058687743425331E-5
-2                        1.4383577247864943       3.21285952397012E-5
-2                        1.2024372191834916       3.0540451326598194E-5
-1.8102250904199269       1.3218538434612288       3.142580182891039E-5
1.060051832128381         -2.1                     4.635362487558592E-6
1.295455836665455         -2.1                     3.924600739119032E-6
1.1802724333881178        -1.9121585231134839      4.230793486568949E-6
1.125026545438824         -0.1                     0
0.9855914897201027        -0.1                     0
1.0526738918134877        -0.21908653224120095     5.87452920020767E-7
0                         0.4654409456151904       2.1428594347353382E-5
0                         0.610624405923613        2.4960116685332547E-5
-0.12289197340930254      0.5418004846451476       2.36029367596746E-5
-2                        1.6742782303894965       3.350866866097541E-5
-2                        1.4383577247864943       3.21285952397012E-5
-1.8117366697933595       1.5575821788674828       3.293013306883765E-5
1.295455836665455         -2.1                     3.924600739119032E-6
1.530859841202528         -2.1                     3.3060768623465027E-6
1.415644348200134         -1.9131497033115414      3.5689761121581273E-6
1.2644616011575456        -0.1                     0
1.125026545438824         -0.1                     0
1.192874707343497         -0.22084913007607143     5.068054579280477E-7
1.4038966568762674        -0.1                     0
1.2644616011575456        -0.1                     0
1.332907164897741         -0.22178949665731593     4.3979300281193003E-7
0                         0.610624405923613        2.4960116685332547E-5
0                         0.7710264798716884       2.873724632574568E-5
-0.13536872088927018      0.6951252260151842       2.685387080895178E-5
-2                        1.910198735992499        3.463245849031062E-5
-2                        1.6742782303894965       3.350866866097541E-5
-1.8133091131503543       1.7928042318094808       3.4194969033210646E-5
1.530859841202528         -2.1                     3.3060768623465027E-6
1.7662638457396016        -2.1                     2.774670039995139E-6
1.6509678419102916        -1.913947536518745       2.9984110762802585E-6
1.5433317125949886        -0.1                     0
1.4038966568762674        -0.1                     0
1.4728399671468908        -0.22170163536203236     3.819465903970013E-7
1.6827667683137104        -0.1                     0
1.5433317125949886        -0.1                     0
1.6126369874543267        -0.22130472154584246     3.331666892597413E-7
0                         0.7710264798716884       2.873724632574568E-5
0                         0.9482303952029425       3.2691100466770336E-5
-0.14885945969644046      0.8648426735342333       3.0268900003504678E-5
-2                        2.146119241595502        3.5462718946577124E-5
-2                        1.910198735992499        3.463245849031062E-5
-1.8142915345256305       2.0277163781428866       3.5180392232941105E-5
1.7662638457396016        -2.1                     2.774670039995139E-6
2.001667850276675         -2.1                     2.3224693457660823E-6
1.8862179694928296        -1.9145872085847693      2.511731747711172E-6
1.8222018240324316        -0.1                     0
1.6827667683137104        -0.1                     0
1.7524205024856452        -0.22053470949905415     2.9122103135788764E-7
0                         0.9482303952029425       3.2691100466770336E-5
0                         1.1439937446136246       3.672745883691312E-5
-0.16192274258080808      1.0514843059799799       3.3749743303466397E-5
-2                        2.382039747198504        3.5974632074572476E-5
-2                        2.146119241595502        3.5462718946577124E-5
-1.8145440777929016       2.2632242380517997       3.5858865964947754E-5
2.001667850276675         -2.1                     2.3224693457660823E-6
2.2370718548137485        -2.1                     1.9403787111773107E-6
2.1212403142882224        -1.9149067733046004      2.1000081812558524E-6
1.9616368797511532        -0.1                     0
1.8222018240324316        -0.1                     0
1.8921889778912155        -0.21910083407876818     2.5415099105992793E-7
0                         1.1439937446136246       3.672745883691312E-5
0                         1.3588800130833947       4.0687491505462895E-5
-0.1732581259874024       1.2542482820910217       3.716733719458078E-5
-2                        2.617960252801507        3.6156705499862995E-5
-2                        2.382039747198504        3.5974632074572476E-5
-1.8145535266948256       2.4988131618576177       3.620883016538176E-5
2.2370718548137485        -2.1                     1.9403787111773107E-6
2.4724758593508214        -2.1                     1.6191919230694772E-6
2.3561757520121613        -1.9147880629664602      1.7533915877555302E-6
2.101071935469875         -0.1                     0
1.9616368797511532        -0.1                     0
2.0316898183392325        -0.21925732829813563     2.2550142247925664E-7
0                         1.3588800130833947       4.0687491505462895E-5
0                         1.5858597535302605       4.426211781456253E-5
-0.1795084219252066       1.473580209319907        4.0427837985657696E-5
0                         1.5858597535302605       4.426211781456253E-5
0                         1.8143948151476934       4.716235621470474E-5
-0.18186824464524037      1.6998398195295814       4.326225634214902E-5
-2                        2.853880758404509        3.601120244144172E-5
-2                        2.617960252801507        3.6156705499862995E-5
-1.8145862475632197       2.734488951757493        3.6224916679362704E-5
2.4724758593508214        -2.1                     1.6191919230694772E-6
2.707879863887895         -2.1                     1.3502242639569512E-6
2.5899536735415256        -1.9134352851616074      1.4638551734108296E-6
2.2405069911885964        -0.1                     0
2.101071935469875         -0.1                     0
2.170954403518864         -0.21946306339801872     2.0069098534365909E-7
2.379942046907318         -0.1                     0
2.2405069911885964        -0.1                     0
2.309867120532118         -0.22014465275618314     1.797169712483346E-7
2.519377102626039         -0.1                     0
2.379942046907318         -0.1                     0
2.4488005906732924        -0.2209684430572204      1.61365360940744E-7
2.658812158344761         -0.1                     0
2.519377102626039         -0.1                     0
2.5880989398843437        -0.22170854871881326     1.449221517884816E-7
2.7982472140634824        -0.1                     0
2.658812158344761         -0.1                     0
2.7277088914998533        -0.22229159769563386     1.300879957352381E-7
2.937682269782204         -0.1                     0
2.7982472140634824        -0.1                     0
2.8673465975262697        -0.22265964559435705     1.166681755510944E-7
0                         1.8143948151476934       4.716235621470474E-5
0                         2.0429298767651267       4.930589987926451E-5
-0.18216771003371712      1.9273041279334155       4.5504114003855526E-5
0                         2.0429298767651267       4.930589987926451E-5
0                         2.2714649383825596       5.06520412641341E-5
-0.18229260576086537      2.1562463098664746       4.707737076358539E-5
-2                        3.0898012640075114       3.555415680086972E-5
-2                        2.853880758404509        3.601120244144172E-5
-1.8147035551189845       2.970305247884012        3.5915729056049E-5
2.707879863887895         -2.1                     1.3502242639569512E-6
2.9432838684249694        -2.1                     1.1256292860927726E-6
2.825796342759402         -1.9132455382417968      1.2198326788349012E-6
3.077117325500925         -0.1                     0
2.937682269782204         -0.1                     0
3.006845660651237         -0.22280196545492512     1.0453377711856505E-7
3.216552381219647         -0.1                     0
3.077117325500925         -0.1                     0
3.146241572668467         -0.2227424114060532      9.358187821688148E-8
0                         2.2714649383825596       5.06520412641341E-5
0                         2.499999999999993        5.11757830812125E-5
-0.1823419249881126       2.385524144460483        4.793263114366053E-5
-2                        3.3257217696105137       3.481495213333219E-5
-2                        3.0898012640075114       3.555415680086972E-5
-1.8147743583868332       3.2062665836821345       3.530372323223137E-5
2.9432838684249694        -2.1                     1.1256292860927726E-6
3.178687872962042         -2.1                     9.385114394514823E-7
3.0614391638272775        -1.912865551540289       1.016596950453261E-6
3.355987436938369         -0.1                     0
3.216552381219647         -0.1                     0
3.2856120273994947        -0.22253224234583127     8.373259392626288E-8
3.4954224926570903        -0.1                     0
3.355987436938369         -0.1                     0
3.425086090583705         -0.22232270811302624     7.496381937139784E-8
0                         2.499999999999993        5.11757830812125E-5
0                         2.7285350616174258       5.086844110692668E-5
-0.1822236976140133       2.614944241793911        4.805216656922567E-5
0                         2.7285350616174258       5.086844110692668E-5
0                         2.957070123234859        4.973782915543876E-5
-0.18182831952101428      2.844479394520134        4.743626411400401E-5
-2                        3.561642275213515        3.383537892154659E-5
-2                        3.3257217696105137       3.481495213333219E-5
-1.814508241982538        3.4422189006433794       3.4425291170593804E-5
3.178687872962042         -2.1                     9.385114394514823E-7
3.4140918774991156        -2.1                     7.829243625235364E-7
3.2970061712504695        -1.9127564014644418      8.476058458223801E-7
3.6348575483758117        -0.1                     0
3.4954224926570903        -0.1                     0
3.564745989017066         -0.22231573791816542     6.726100715993682E-8
3.774292604094533         -0.1                     0
3.6348575483758117        -0.1                     0
3.704437425395104         -0.22251683930070898     6.049621813808136E-8
0                         2.957070123234859        4.973782915543876E-5
0                         3.185605184852292        4.780804223017587E-5
-0.18103431719503904      3.0739776433646573       4.610225848132639E-5
-2                        3.797562780816517        3.266802361489428E-5
-2                        3.561642275213515        3.383537892154659E-5
-1.8134260535470643       3.6778830759728005       3.332993975553923E-5
3.4140918774991156        -2.1                     7.829243625235364E-7
3.6494958820361894        -2.1                     6.538059176401398E-7
3.5325985356809597        -1.9130223104015338      7.072899572645132E-7
3.913727659813255         -0.1                     0
3.774292604094533         -0.1                     0
3.844001964580865         -0.2227039137934069      5.445693888423169E-8
4.053162715531976         -0.1                     0
3.913727659813255         -0.1                     0
3.983533451182107         -0.22272860799811336     4.900504625928655E-8
0                         3.185605184852292        4.780804223017587E-5
0                         3.4141402464697252       4.5118867174200764E-5
-0.17941097912602774      3.302977961818844        4.409133629760756E-5
0                         3.4141402464697252       4.5118867174200764E-5
0                         3.641119986916597        4.175014353204492E-5
-0.17613686177319635      3.5289963861416385       4.149181610046505E-5
0                         3.641119986916597        4.175014353204492E-5
0                         3.8560062553863665       3.798076792346855E-5
-0.1690979428154845       3.7473075363988624       3.8465415185014466E-5
0                         3.8560062553863665       3.798076792346855E-5
0                         4.051769604797049        3.411407736532552E-5
-0.15879845081525432      3.951390900587333        3.521136721723138E-5
-2                        4.0334832864195205       3.137378581907345E-5
-2                        3.797562780816517        3.266802361489428E-5
-1.812388910890345        3.9139707177051837       3.2071347516706816E-5
3.6494958820361894        -2.1                     6.538059176401398E-7
3.8848998865732622        -2.1                     5.468868770444959E-7
3.768076711339408         -1.9134476851189879      5.910589244620818E-7
4.192597771250697         -0.1                     0
4.053162715531976         -0.1                     0
4.123173315966267         -0.22265607970849863     4.41114404710732E-8
4.332032826969419         -0.1                     0
4.192597771250697         -0.1                     0
4.262887984957112         -0.2225697145639814      3.975467144936725E-8
0                         4.051769604797049        3.411407736532552E-5
0                         4.228973520128305        3.0310543169763964E-5
-0.14640986302166575      4.137549911688174        3.191226194726895E-5
-2                        4.269403792022521        3.001838226932105E-5
-2                        4.0334832864195205       3.137378581907345E-5
-1.8112369623242779       4.150177172422889        3.0715782792072136E-5
3.8848998865732622        -2.1                     5.468868770444959E-7
4.120303891110336         -2.1                     4.585926462124047E-7
4.003253548477235         -1.9137409163502896      4.950498893190784E-7
4.471467882688141         -0.1                     0
4.332032826969419         -0.1                     0
4.402591687730564         -0.22245830723910032     3.5880754236291636E-8
4.610902938406863         -0.1                     0
4.471467882688141         -0.1                     0
4.542291634883714         -0.22231805150883424     3.2441835589108335E-8
0                         4.228973520128305        3.0310543169763964E-5
0                         4.389375594076383        2.6668721936367122E-5
-0.13478616034299182      4.306646857114516        2.8672366423724068E-5
-2                        4.505324297625524        2.8667793238711602E-5
-2                        4.269403792022521        3.001838226932105E-5
-1.8108990640579306       4.3863985952651126       2.9332118914630855E-5
4.120303891110336         -2.1                     4.585926462124047E-7
4.35570789564741          -2.1                     3.8594861784330716E-7
4.238223236357064         -1.9136704712417378      4.159344512754418E-7
4.750337994125584         -0.1                     0
4.610902938406863         -0.1                     0
4.681973398034401         -0.222155867764129       2.9398879778389227E-8
0                         4.389375594076383        2.6668721936367122E-5
0                         4.534559054384806        2.326280962377607E-5
-0.12390885147414508      4.460050095550938        2.558501816642499E-5
0                         4.534559054384806        2.326280962377607E-5
0                         4.665978634744171        2.0163359926871236E-5
-0.11431750405086824      4.598908349427916        2.273768889827705E-5
-2                        4.7412448032285255       2.7382953117766585E-5
-2                        4.505324297625524        2.8667793238711602E-5
-1.810825790900088        4.622746456789798        2.7986317227138092E-5
4.8897730498443055        -0.1                     0
4.750337994125584         -0.1                     0
4.82158565554097          -0.22194589576647897     2.671024073119295E-8
4.35570789564741          -2.1                     3.8594861784330716E-7
4.591111900184483         -2.1                     3.2649443843647164E-7
4.473364488870661         -1.913217936025103       3.509192861369713E-7
5.029208105563027         -0.1                     0
4.8897730498443055        -0.1                     0
4.961178047977154         -0.2217109037287116      2.4348215558363963E-8
0                         4.665978634744171        2.0163359926871236E-5
0                         4.785352746330957        1.7449443846759884E-5
-0.10616172329562268      4.724920711233303        2.0208418368138354E-5
-2                        4.977165308831528        2.621438073282059E-5
-2                        4.7412448032285255       2.7382953117766585E-5
-1.810934242614844        4.8591477658263225       2.6737338396387404E-5
4.591111900184483         -2.1                     3.2649443843647164E-7
4.826515904721557         -2.1                     2.7820919372592607E-7
4.70881662155852          -1.9126859944033898      2.9781931171330613E-7
5.168643161281748         -0.1                     0
5.029208105563027         -0.1                     0
5.100788308544586         -0.22157220136551412     2.230581632532279E-8
0                         4.785352746330957        1.7449443846759884E-5
0                         4.896093599842548        1.5220558812751862E-5
-0.09875504944445097      4.840263815955695        1.8066227262998886E-5
-2                        5.21308581443453         2.5197822738525504E-5
-2                        4.977165308831528        2.621438073282059E-5
-1.8109653461710749       5.095612306736077        2.5630141759924095E-5
-2                        5.449006320037531        2.4351994954482977E-5
-2                        5.21308581443453         2.5197822738525504E-5
-1.8104698060615043       5.332418170827913        2.4691391822440725E-5
4.826515904721557         -2.1                     2.7820919372592607E-7
5.061919909258631         -2.1                     2.394476166517681E-7
4.944317778872884         -1.912532314174615       2.5492590910642096E-7
5.308078217000469         -0.1                     0
5.168643161281748         -0.1                     0
5.2402854346454175        -0.22163605167058242     2.057230154365136E-8
0                         4.896093599842548        1.5220558812751862E-5
0                         5                        1.3673193678206986E-5
-0.09752139268225549      4.944990626336669        1.6528414977157253E-5
-2                        5.6849268256405345       2.3679028611284733E-5
-2                        5.449006320037531        2.4351994954482977E-5
-1.8095149671305624       5.569514327014867        2.393167734077515E-5
5.447513272719191         -0.1                     0
5.308078217000469         -0.1                     0
5.379471834422474         -0.2218116247760093      1.9105318222174347E-8
5.061919909258631         -2.1                     2.394476166517681E-7
5.297323913795703         -2.1                     2.088866770198723E-7
5.179835162781797         -1.9126174191717071      2.2077490938910698E-7
5.586948328437913         -0.1                     0
5.447513272719191         -0.1                     0
5.518295822878883         -0.22178694500657162     1.783702501312895E-8
5.726383384156634         -0.1                     0
5.586948328437913         -0.1                     0
5.65697084260933          -0.22167894489010276     1.6771274048663005E-8
0                         5                        1.3673193678206986E-5
0.09725799567993704       5                        1.0702401537499741E-5
0.04549028241684818       5.084242024656803        1.1701678887557265E-5
-2                        5.920847331243536        2.3167438689911136E-5
-2                        5.6849268256405345       2.3679028611284733E-5
-1.8068187192012128       5.80682498208139         2.3344565312942083E-5
-2                        6.156767836846538        2.2796698598532884E-5
-2                        5.920847331243536        2.3167438689911136E-5
-1.8026107942666219       6.047812453281348        2.2907125017175248E-5
5.297323913795703         -2.1                     2.088866770198723E-7
5.532727918332776         -2.1                     1.854820098693468E-7
5.415313699135471         -1.9127954095606348      1.9419949387610811E-7
5.865818439875356         -0.1                     0
5.726383384156634         -0.1                     0
5.795592355771693         -0.22128094252934744     1.5868992342615515E-8
6.0052534955940775        -0.1                     0
5.865818439875356         -0.1                     0
5.934404023592075         -0.2209415381826476      1.516660102928195E-8
0.09725799567993704       5                        1.0702401537499741E-5
0.18706786716800028       5                        6.8041935038360315E-6
0.1341775722796173        5.076781767364179        8.549694853529169E-6
0.18706786716800028       5                        6.8041935038360315E-6
0.27                      5                        0
0.20588771972661823       5.079897859618956        4.925716524736755E-6
-2                        6.39268834244954         2.2542370149277337E-5