% Model:                CdZnTE_280211_2D_SE_WP_Cathode.mph
% Version:              COMSOL 4.1.0.88
% Date:                 Jul 11 2011, 14:18
% Dimension:            2
% Nodes:                56934
% Expressions:          1
% Description:          Electric potential
% x                       y                        V (V)
-2                        -1.8645293522661046      0.0028953553684033235
-2                        -2.1                     0.002877565902438757
-1.846364360343395        -1.9401710821195468      0.002878164798935654
-2                        -2.1                     0.002877565902438757
-1.764796222180569        -2.1                     0.002859872733324982
-1.846364360343395        -1.9401710821195468      0.002878164798935654
-2                        -1.6286088480525398      0.002949208722923584
-2                        -1.8645293522661046      0.0028953553684033235
-1.8245167365948494       -1.7449367782940313      0.0029080279813325964
-2                        -1.3926883424495373      0.003040111629349595
-2                        -1.6286088480525398      0.002949208722923584
-1.8168623695316584       -1.512189523512412       0.0029780004233066135
-1.764796222180569        -2.1                     0.002859872733324982
-1.529392217779427        -2.1                     0.002807103626098128
-1.6425247983867886       -1.8914043628477542      0.0028504231455280305
-2                        -1.1567678368465348      0.0031695293380221133
-2                        -1.3926883424495373      0.003040111629349595
-1.8122455777218598       -1.2767049080338484      0.003086367343581629
-1.529392217779427        -2.1                     0.002807103626098128
-1.2939882132423535       -2.1                     0.0027203777918383756
-1.3989614082807784       -1.9110406672624995      0.0027737959582452816
-2                        -0.920847331243532       0.003339104831061041
-2                        -1.1567678368465348      0.0031695293380221133
-1.8109836351205506       -1.0405681798744235      0.003234784442772956
-1.2939882132423535       -2.1                     0.0027203777918383756
-1.05858420870528         -2.1                     0.0026017332440365706
-1.1696308739542287       -1.909293466203794       0.0026715464225070163
-2                        -0.6849268256405294      0.003550213278330205
-2                        -0.920847331243532       0.003339104831061041
-1.810295659913922        -0.8045304929098868      0.0034243277317635833
-1.05858420870528         -2.1                     0.0026017332440365706
-0.8231802041682066       -2.1                     0.002454281409427514
-0.9374566002124125       -1.908700173002049       0.002538101233266418
-2                        -0.4490063200375265      0.0038033807672263496
-2                        -0.6849268256405294      0.003550213278330205
-1.8097491300494364       -0.5683692088677957      0.003656377955823959
-0.8231802041682066       -2.1                     0.002454281409427514
-0.587776199631133        -2.1                     0.0022823842527404463
-0.702442025043489        -1.9095207699513645      0.002376004402902619
-2                        -0.21308581443452423     0.004097634164291916
-2                        -0.4490063200375265      0.0038033807672263496
-1.8097640917460813       -0.3318487261805915      0.003931444648302748
-0.587776199631133        -2.1                     0.0022823842527404463
-0.3523721950940597       -2.1                     0.002091707093397557
-0.4672480472817225       -1.9100923020549863      0.0021917590515607072
-2                        0.02283469116847825      0.004429910162243252
-2                        -0.21308581443452423     0.004097634164291916
-1.8105412062410897       -0.0958658833976639      0.004246669181973204
-0.3523721950940597       -2.1                     0.002091707093397557
-0.11696819055698615      -2.1                     0.0018890473204958818
-0.23252005099952355      -1.9100649405128722      0.00199225591980804
-2                        0.2587551967714812       0.004794688716290632
-2                        0.02283469116847825      0.004429910162243252
-1.8110785387248838       0.14021195088646163      0.004598433441229416
-0.11696819055698615      -2.1                     0.0018890473204958818
0.11843581398008718       -2.1                     0.0016818688529489708
0.0028064179962684482     -1.9097863682838865      0.0017839268844651371
0.3639115504057773        -0.1                     0
0.27                      -0.1                     0
0.3155232914343534        -0.1891591978532564      4.7069675996001706E-4
0.18706786716800006       0                        0.0011042787863163603
0.09725799567993655       0                        0.001725449937510539
0.136474273000267         -0.06484323953093968     0.0013050669097590935
0.09725799567993655       0                        0.001725449937510539
0                         0                        0.0022018377187498586
0.04825893493545653       -0.083540921452322       0.0017810975085753458
-2                        0.49467570237448366      0.0051839813386855916
-2                        0.2587551967714812       0.004794688716290632
-1.8108872450663813       0.37611999723855494      0.004979458164255796
0.11843581398008718       -2.1                     0.0016818688529489708
0.3538398185171605        -2.1                     0.0014775732428613157
0.23790455401201951       -1.9095195768809718      0.0015752513955974387
0.4676574669449062        -0.1                     0
0.3639115504057773        -0.1                     0
0.41484073698070734       -0.19607074930896257     3.1954116222028675E-4
0.27                      -0.1                     0
0.27                      0                        0
0.2093597961748373        -0.058752783995909975    7.17217185884864E-4
0.27                      0                        0
0.18706786716800006       0                        0.0011042787863163603
0.2093597961748373        -0.058752783995909975    7.17217185884864E-4
0                         0                        0.0022018377187498586
0                         0.10390640015745226      0.0025575222912455815
-0.09240933680645019      0.05644175854491199      0.00271028898327604
-2                        0.7305962079774864       0.005587710789332004
-2                        0.49467570237448366      0.0051839813386855916
-1.8102978591166694       0.6121077323603339       0.005380926297205425
0.3538398185171605        -2.1                     0.0014775732428613157
0.5892438230542343        -2.1                     0.0012826788206258938
0.47351012803695564       -1.9096142074834344      0.0013729117585336312
0.5822677116210757        -0.1                     0
0.4676574669449062        -0.1                     0
0.5254387392722403        -0.19828333020975616     2.350533128264493E-4
0                         0.10390640015745226      0.0025575222912455815
0                         0.21464725366904303      0.0030262364714807905
-0.09413192195342449      0.162719619652995        0.003073780245625156
-2                        0.9665167135804887       0.005994394999049482
-2                        0.7305962079774864       0.005587710789332004
-1.809636460660011        0.8481252817224755       0.005791670052266971
0.5892438230542343        -2.1                     0.0012826788206258938
0.8246478275913076        -2.1                     0.0011021582153117166
0.7092119849183914        -1.9101441564387935      0.0011832910720218572
0.7088801016846716        -0.1                     0
0.5822677116210757        -0.1                     0
0.6463164295287661        -0.20419523662202613     1.9080647256109013E-4
0                         0.21464725366904303      0.0030262364714807905
0                         0.33402136525582626      0.0035796310761808184
-0.10238192627319108      0.2773266173600838       0.0035353759318012042
-2                        1.2024372191834916       0.006391983565088361
-2                        0.9665167135804887       0.005994394999049482
-1.8093966065345832       1.0848785704694899       0.0062007103247040864
0.8246478275913076        -2.1                     0.0011021582153117166
1.060051832128381         -2.1                     9.391290102537887E-4
0.944810122475995         -1.9110638723910947      0.0010106388437338145
0.8462977796009774        -0.1                     0
0.7088801016846716        -0.1                     0
0.7768427587250946        -0.20990692940404454     1.6011918660048134E-4
0.9855914897201027        -0.1                     0
0.8462977796009774        -0.1                     0
0.913331841434306         -0.21558011435769117     1.3778557435178388E-4
0                         0.33402136525582626      0.0035796310761808184
0                         0.4654409456151904       0.004206126473672966
-0.11195765141043862      0.40324858292617355      0.004069559329797788
-2                        1.4383577247864943       0.006768694197297946
-2                        1.2024372191834916       0.006391983565088361
-1.8102250904199269       1.3218538434612288       0.006594613634129728
1.060051832128381         -2.1                     9.391290102537887E-4
1.295455836665455         -2.1                     7.949316104254802E-4
1.1802724333881178        -1.9121585231134839      8.570306063860622E-4
1.125026545438824         -0.1                     0
0.9855914897201027        -0.1                     0
1.0526738918134877        -0.21908653224120095     1.1873509702015704E-4
0                         0.4654409456151904       0.004206126473672966
0                         0.610624405923613        0.004894879246210826
-0.12289197340930254      0.5418004846451476       0.004663084733516722
-2                        1.6742782303894965       0.007113748435442135
-2                        1.4383577247864943       0.006768694197297946
-1.8117366697933595       1.5575821788674828       0.006959356571633389
1.295455836665455         -2.1                     7.949316104254802E-4
1.530859841202528         -2.1                     6.694782737784624E-4
1.415644348200134         -1.9131497033115414      7.227924958936974E-4
1.2644616011575456        -0.1                     0
1.125026545438824         -0.1                     0
1.192874707343497         -0.22084913007607143     1.0247303711616948E-4
1.4038966568762674        -0.1                     0
1.2644616011575456        -0.1                     0
1.332907164897741         -0.22178949665731593     8.894631724979425E-5
0                         0.610624405923613        0.004894879246210826
0                         0.7710264798716884       0.005636695269049755
-0.13536872088927018      0.6951252260151842       0.005307677296071317
-2                        1.910198735992499        0.007417964757012556
-2                        1.6742782303894965       0.007113748435442135
-1.8133091131503543       1.7928042318094808       0.007286280405748482
1.530859841202528         -2.1                     6.694782737784624E-4
1.7662638457396016        -2.1                     5.617043324835144E-4
1.6509678419102916        -1.913947536518745       6.070806750791084E-4
1.5433317125949886        -0.1                     0
1.4038966568762674        -0.1                     0
1.4728399671468908        -0.22170163536203236     7.725977547100387E-5
1.6827667683137104        -0.1                     0
1.5433317125949886        -0.1                     0
1.6126369874543267        -0.22130472154584246     6.739845276597427E-5
0                         0.7710264798716884       0.005636695269049755
0                         0.9482303952029425       0.00642161787399868
-0.14885945969644046      0.8648426735342333       0.005992169022694752
-2                        2.146119241595502        0.007674217170078308
-2                        1.910198735992499        0.007417964757012556
-1.8142915345256305       2.0277163781428866       0.0075677546895489434
1.7662638457396016        -2.1                     5.617043324835144E-4
2.001667850276675         -2.1                     4.699878876252619E-4
1.8862179694928296        -1.9145872085847693      5.083807227256887E-4
1.8222018240324316        -0.1                     0
1.6827667683137104        -0.1                     0
1.7524205024856452        -0.22053470949905415     5.891402257366663E-5
0                         0.9482303952029425       0.00642161787399868
0                         1.1439937446136246       0.0072358128622719824
-0.16192274258080808      1.0514843059799799       0.006700250754059555
-2                        2.382039747198504        0.007877780187381023
-2                        2.146119241595502        0.007674217170078308
-1.8145440777929016       2.2632242380517997       0.007798859135036708
2.001667850276675         -2.1                     4.699878876252619E-4
2.2370718548137485        -2.1                     3.924726527746742E-4
2.1212403142882224        -1.9149067733046004      4.2486836946418533E-4
1.9616368797511532        -0.1                     0
1.8222018240324316        -0.1                     0
1.8921889778912155        -0.21910083407876818     5.1412271590151574E-5
0                         1.1439937446136246       0.0072358128622719824
0                         1.3588800130833947       0.008053517488156676
-0.1732581259874024       1.2542482820910217       0.00740968407241583
-2                        2.617960252801507        0.00802658315202168
-2                        2.382039747198504        0.007877780187381023
-1.8145535266948256       2.4988131618576177       0.007975332166913436
2.2370718548137485        -2.1                     3.924726527746742E-4
2.4724758593508214        -2.1                     3.272836480973666E-4
2.3561757520121613        -1.9147880629664602      3.5453753559559054E-4
2.101071935469875         -0.1                     0
1.9616368797511532        -0.1                     0
2.0316898183392325        -0.21925732829813563     4.5611526434399505E-5
0                         1.3588800130833947       0.008053517488156676
0                         1.5858597535302605       0.008817230694135987
-0.1795084219252066       1.473580209319907        0.008104476016277463
0                         1.5858597535302605       0.008817230694135987
0                         1.8143948151476934       0.009468534059624507
-0.18186824464524037      1.6998398195295814       0.008732219176229608
-2                        2.853880758404509        0.008121383765822913
-2                        2.617960252801507        0.00802658315202168
-1.8145862475632197       2.734488951757493        0.008096350116036061
2.4724758593508214        -2.1                     3.272836480973666E-4
2.707879863887895         -2.1                     2.7265354254581815E-4
2.5899536735415256        -1.9134352851616074      2.957545785933118E-4
2.2405069911885964        -0.1                     0
2.101071935469875         -0.1                     0
2.170954403518864         -0.21946306339801872     4.058568646869128E-5
2.379942046907318         -0.1                     0
2.2405069911885964        -0.1                     0
2.309867120532118         -0.22014465275618314     3.633455918726931E-5
2.519377102626039         -0.1                     0
2.379942046907318         -0.1                     0
2.4488005906732924        -0.2209684430572204      3.261275458107587E-5
2.658812158344761         -0.1                     0
2.519377102626039         -0.1                     0
2.5880989398843437        -0.22170854871881326     2.9275957656516895E-5
2.7982472140634824        -0.1                     0
2.658812158344761         -0.1                     0
2.7277088914998533        -0.22229159769563386     2.6263688402041835E-5
2.937682269782204         -0.1                     0
2.7982472140634824        -0.1                     0
2.8673465975262697        -0.22265964559435705     2.3536618943907675E-5
0                         1.8143948151476934       0.009468534059624507
0                         2.0429298767651267       0.009988827928656551
-0.18216771003371712      1.9273041279334155       0.009258958015342227
0                         2.0429298767651267       0.009988827928656551
0                         2.2714649383825596       0.010366669985421215
-0.18229260576086537      2.1562463098664746       0.009668721575677327
-2                        3.0898012640075114       0.00816585798052208
-2                        2.853880758404509        0.008121383765822913
-1.8147035551189845       2.970305247884012        0.008164029146730348
2.707879863887895         -2.1                     2.7265354254581815E-4
2.9432838684249694        -2.1                     2.269856581766416E-4
2.825796342759402         -1.9132455382417968      2.4616726295222596E-4
3.077117325500925         -0.1                     0
2.937682269782204         -0.1                     0
3.006845660651237         -0.22280196545492512     2.1068684635596027E-5
3.216552381219647         -0.1                     0
3.077117325500925         -0.1                     0
3.146241572668467         -0.2227424114060532      1.8839015243759753E-5
0                         2.2714649383825596       0.010366669985421215
0                         2.499999999999993        0.010592587101868944
-0.1823419249881126       2.385524144460483        0.009948390018974877
-2                        3.3257217696105137       0.008166583805180911
-2                        3.0898012640075114       0.00816585798052208
-1.8147743583868332       3.2062665836821345       0.008183439670142446
2.9432838684249694        -2.1                     2.269856581766416E-4
3.178687872962042         -2.1                     1.888759520447813E-4
3.0614391638272775        -1.912865551540289       2.0481239772670703E-4
3.355987436938369         -0.1                     0
3.216552381219647         -0.1                     0
3.2856120273994947        -0.22253224234583127     1.683134141182765E-5
3.4954224926570903        -0.1                     0
3.355987436938369         -0.1                     0
3.425086090583705         -0.22232270811302624     1.5040931038898823E-5
0                         2.499999999999993        0.010592587101868944
0                         2.7285350616174258       0.010659531062335071
-0.1822236976140133       2.614944241793911        0.010090549751010716
0                         2.7285350616174258       0.010659531062335071
0                         2.957070123234859        0.010563326137575275
-0.18182831952101428      2.844479394520134        0.010090991636327701
-2                        3.561642275213515        0.008132878080302976
-2                        3.3257217696105137       0.008166583805180911
-1.814508241982538        3.4422189006433794       0.00816259394496401
3.178687872962042         -2.1                     1.888759520447813E-4
3.4140918774991156        -2.1                     1.5711205712098207E-4
3.2970061712504695        -1.9127564014644418      1.7035734472849992E-4
3.6348575483758117        -0.1                     0
3.4954224926570903        -0.1                     0
3.564745989017066         -0.22231573791816542     1.3464419625180884E-5
3.774292604094533         -0.1                     0
3.6348575483758117        -0.1                     0
3.704437425395104         -0.22251683930070898     1.207563882173812E-5
0                         2.957070123234859        0.010563326137575275
0                         3.185605184852292        0.010303083848301841
-0.18103431719503904      3.0739776433646573       0.00994876886452474
-2                        3.797562780816517        0.008076427633788259
-2                        3.561642275213515        0.008132878080302976
-1.8134260535470643       3.6778830759728005       0.008112256565447121
3.4140918774991156        -2.1                     1.5711205712098207E-4
3.6494958820361894        -2.1                     1.3065962980312833E-4
3.5325985356809597        -1.9130223104015338      1.4166560215410557E-4
3.913727659813255         -0.1                     0
3.774292604094533         -0.1                     0
3.844001964580865         -0.2227039137934069      1.0831614202688669E-5
4.053162715531976         -0.1                     0
3.913727659813255         -0.1                     0
3.983533451182107         -0.22272860799811336     9.704385410908943E-6
0                         3.185605184852292        0.010303083848301841
0                         3.4141402464697252       0.009881558002363584
-0.17941097912602774      3.302977961818844        0.009667801864249294
0                         3.4141402464697252       0.009881558002363584
0                         3.641119986916597        0.009309819443353263
-0.17613686177319635      3.5289963861416385       0.009261108570507454
0                         3.641119986916597        0.009309819443353263
0                         3.8560062553863665       0.008637532446016599
-0.1690979428154845       3.7473075363988624       0.008756199200126434
0                         3.8560062553863665       0.008637532446016599
0                         4.051769604797049        0.007924974730599813
-0.15879845081525432      3.951390900587333        0.008189772245717748
-2                        4.0334832864195205       0.008010641798256847
-2                        3.797562780816517        0.008076427633788259
-1.812388910890345        3.9139707177051837       0.008045013692597254
3.6494958820361894        -2.1                     1.3065962980312833E-4
3.8848998865732622        -2.1                     1.0864341240190521E-4
3.768076711339408         -1.9134476851189879      1.1779798966118908E-4
4.192597771250697         -0.1                     0
4.053162715531976         -0.1                     0
4.123173315966267         -0.22265607970849863     8.687722395673576E-6
4.332032826969419         -0.1                     0
4.192597771250697         -0.1                     0
4.262887984957112         -0.2225697145639814      7.776856306613033E-6
0                         4.051769604797049        0.007924974730599813
0                         4.228973520128305        0.007208649030041761
-0.14640986302166575      4.137549911688174        0.007598606062276696
-2                        4.269403792022521        0.007949671476571142
-2                        4.0334832864195205       0.008010641798256847
-1.8112369623242779       4.150177172422889        0.007975204964439419
3.8848998865732622        -2.1                     1.0864341240190521E-4
4.120303891110336         -2.1                     9.032688774159608E-5
4.003253548477235         -1.9137409163502896      9.796123953276082E-5
4.471467882688141         -0.1                     0
4.332032826969419         -0.1                     0
4.402591687730564         -0.22245830723910032     6.960571209876619E-6
4.610902938406863         -0.1                     0
4.471467882688141         -0.1                     0
4.542291634883714         -0.22231805150883424     6.228831072941854E-6
0                         4.228973520128305        0.007208649030041761
0                         4.389375594076383        0.0065134814145253375
-0.13478616034299182      4.306646857114516        0.007008425938234832
-2                        4.505324297625524        0.007907079083624343
-2                        4.269403792022521        0.007949671476571142
-1.8108990640579306       4.3863985952651126       0.007917501056494056
4.120303891110336         -2.1                     9.032688774159608E-5
4.35570789564741          -2.1                     7.509263492696321E-5
4.238223236357064         -1.9136704712417378      8.14678945781785E-5
4.750337994125584         -0.1                     0
4.610902938406863         -0.1                     0
4.681973398034401         -0.222155867764129       5.573323801508959E-6
0                         4.389375594076383        0.0065134814145253375
0                         4.534559054384806        0.005859832115180832
-0.12390885147414508      4.460050095550938        0.006442698390917254
0                         4.534559054384806        0.005859832115180832
0                         4.665978634744171        0.00526886905811844
-0.11431750405086824      4.598908349427916        0.00592541082497319
-2                        4.7412448032285255       0.00789425440338009
-2                        4.505324297625524        0.007907079083624343
-1.810825790900088        4.622746456789798        0.00788522443404294
4.8897730498443055        -0.1                     0
4.750337994125584         -0.1                     0
4.82158565554097          -0.22194589576647897     4.985285082641234E-6
4.35570789564741          -2.1                     7.509263492696321E-5
4.591111900184483         -2.1                     6.242442677747738E-5
4.473364488870661         -1.913217936025103       6.773541114791678E-5
5.029208105563027         -0.1                     0
4.8897730498443055        -0.1                     0
4.961178047977154         -0.2217109037287116      4.458551052864866E-6
0                         4.665978634744171        0.00526886905811844
0                         4.785352746330957        0.004766749929412143
-0.10616172329562268      4.724920711233303        0.0054807339675973284
-2                        4.977165308831528        0.007918807736103758
-2                        4.7412448032285255       0.00789425440338009
-1.810934242614844        4.8591477658263225       0.007888684507377779
4.591111900184483         -2.1                     6.242442677747738E-5
4.826515904721557         -2.1                     5.189144767006915E-5
4.70881662155852          -1.9126859944033898      5.630116412331068E-5
5.168643161281748         -0.1                     0
5.029208105563027         -0.1                     0
5.100788308544586         -0.22157220136551412     3.9906386238436325E-6
0                         4.785352746330957        0.004766749929412143
0                         4.896093599842548        0.0043923537243777495
-0.09875504944445097      4.840263815955695        0.005132956893865134
-2                        5.21308581443453         0.007983297450955818
-2                        4.977165308831528        0.007918807736103758
-1.8109653461710749       5.095612306736077        0.007933449990007354
-2                        5.449006320037531        0.008084658326348396
-2                        5.21308581443453         0.007983297450955818
-1.8104698060615043       5.332418170827913        0.008019422731522152
4.826515904721557         -2.1                     5.189144767006915E-5
5.061919909258631         -2.1                     4.313462625336947E-5
4.944317778872884         -1.912532314174615       4.679604285608148E-5
5.308078217000469         -0.1                     0
5.168643161281748         -0.1                     0
5.2402854346454175        -0.22163605167058242     3.5781487218698754E-6
0                         4.896093599842548        0.0043923537243777495
0                         5                        0.004212915552611862
-0.09752139268225549      4.944990626336669        0.0049489936741512865
-2                        5.6849268256405345       0.008214545262640257
-2                        5.449006320037531        0.008084658326348396
-1.8095149671305624       5.569514327014867        0.008140634271000063
5.447513272719191         -0.1                     0
5.308078217000469         -0.1                     0
5.379471834422474         -0.2218116247760093      3.2120603760079396E-6
5.061919909258631         -2.1                     4.313462625336947E-5
5.297323913795703         -2.1                     3.5854926499455877E-5
5.179835162781797         -1.9126174191717071      3.8895480761264945E-5
5.586948328437913         -0.1                     0
5.447513272719191         -0.1                     0
5.518295822878883         -0.22178694500657162     2.8795528790403363E-6
5.726383384156634         -0.1                     0
5.586948328437913         -0.1                     0
5.65697084260933          -0.22167894489010276     2.5800293491167427E-6
0                         5                        0.004212915552611862
0.09725799567993704       5                        0.0032766932100599263
0.04549028241684818       5.084242024656803        0.0038474415430457378
-2                        5.920847331243536        0.00836053987463387
-2                        5.6849268256405345       0.008214545262640257
-1.8068187192012128       5.80682498208139         0.008285896740356085
-2                        6.156767836846538        0.008507911700678748
-2                        5.920847331243536        0.00836053987463387
-1.8026107942666219       6.047812453281348        0.008443072649420402
5.297323913795703         -2.1                     3.5854926499455877E-5
5.532727918332776         -2.1                     2.9803455744802546E-5
5.415313699135471         -1.9127954095606348      3.2329689229706024E-5
5.865818439875356         -0.1                     0
5.726383384156634         -0.1                     0
5.795592355771693         -0.22128094252934744     2.306275777549473E-6
6.0052534955940775        -0.1                     0
5.865818439875356         -0.1                     0
5.934404023592075         -0.2209415381826476      2.0622466556733504E-6
0.09725799567993704       5                        0.0032766932100599263
0.18706786716800028       5                        0.002049109593383894
0.1341775722796173        5.076781767364179        0.0028237132252218362
0.18706786716800028       5                        0.002049109593383894
0.27                      5                        0
0.20588771972661823       5.079897859618956        0.00165967593410973
-2                        6.39268834244954         0.008641607124520544
-2                        6.156767836846538        0.008507911700678748