% Model:                CdZnTE_280211_2D_SE_WP_Cathode.mph
% Version:              COMSOL 4.1.0.88
% Date:                 Jul 11 2011, 14:34
% Dimension:            2
% Nodes:                56934
% Expressions:          1
% Description:          Electric potential
% x                       y                        V (V)
-2                        -1.8645293522661046      6.680566332924235E-6
-2                        -2.1                     6.639977495462546E-6
-1.846364360343395        -1.9401710821195468      6.641347545511288E-6
-2                        -2.1                     6.639977495462546E-6
-1.764796222180569        -2.1                     6.59960000371338E-6
-1.846364360343395        -1.9401710821195468      6.641347545511288E-6
-2                        -1.6286088480525398      6.803384361572226E-6
-2                        -1.8645293522661046      6.680566332924235E-6
-1.8245167365948494       -1.7449367782940313      6.70949730003555E-6
-2                        -1.3926883424495373      7.010507167167958E-6
-2                        -1.6286088480525398      6.803384361572226E-6
-1.8168623695316584       -1.512189523512412       6.869084675304055E-6
-1.764796222180569        -2.1                     6.59960000371338E-6
-1.529392217779427        -2.1                     6.479123624107673E-6
-1.6425247983867886       -1.8914043628477542      6.578061960621483E-6
-2                        -1.1567678368465348      7.304954353995399E-6
-2                        -1.3926883424495373      7.010507167167958E-6
-1.8122455777218598       -1.2767049080338484      7.1159680661837334E-6
-1.529392217779427        -2.1                     6.479123624107673E-6
-1.2939882132423535       -2.1                     6.280960408802202E-6
-1.3989614082807784       -1.9110406672624995      6.403108398640366E-6
-2                        -0.920847331243532       7.689950393220349E-6
-2                        -1.1567678368465348      7.304954353995399E-6
-1.8109836351205506       -1.0405681798744235      7.453522184137691E-6
-1.2939882132423535       -2.1                     6.280960408802202E-6
-1.05858420870528         -2.1                     6.009552735676565E-6
-1.1696308739542287       -1.909293466203794       6.16941640213252E-6
-2                        -0.6849268256405294      8.167838389904952E-6
-2                        -0.920847331243532       7.689950393220349E-6
-1.810295659913922        -0.8045304929098868      7.883582318115057E-6
-1.05858420870528         -2.1                     6.009552735676565E-6
-0.8231802041682066       -2.1                     5.671773395103166E-6
-0.9374566002124125       -1.908700173002049       5.864018814880613E-6
-2                        -0.4490063200375265      8.738672749908517E-6
-2                        -0.6849268256405294      8.167838389904952E-6
-1.8097491300494364       -0.5683692088677957      8.408365905533828E-6
-0.8231802041682066       -2.1                     5.671773395103166E-6
-0.587776199631133        -2.1                     5.277382631989143E-6
-0.702442025043489        -1.9095207699513645      5.492468139391058E-6
-2                        -0.21308581443452423     9.398658480975694E-6
-2                        -0.4490063200375265      8.738672749908517E-6
-1.8097640917460813       -0.3318487261805915      9.027682841991269E-6
-0.587776199631133        -2.1                     5.277382631989143E-6
-0.3523721950940597       -2.1                     4.839202117833142E-6
-0.4672480472817225       -1.9100923020549863      5.069442844482526E-6
-2                        0.02283469116847825      1.0138752472724354E-5
-2                        -0.21308581443452423     9.398658480975694E-6
-1.8105412062410897       -0.0958658833976639      9.733226646894686E-6
-0.3523721950940597       -2.1                     4.839202117833142E-6
-0.11696819055698615      -2.1                     4.37276205798601E-6
-0.23252005099952355      -1.9100649405128722      4.61062446927298E-6
-2                        0.2587551967714812       1.0943829921641279E-5
-2                        0.02283469116847825      1.0138752472724354E-5
-1.8110785387248838       0.14021195088646163      1.0514424049965897E-5
-0.11696819055698615      -2.1                     4.37276205798601E-6
0.11843581398008718       -2.1                     3.895247279167688E-6
0.0028064179962684482     -1.9097863682838865      4.130763127584734E-6
0.3639115504057773        -0.1                     0
0.27                      -0.1                     0
0.3155232914343534        -0.1891591978532564      1.103191334401633E-6
0.18706786716800006       0                        2.633512526980284E-6
0.09725799567993655       0                        4.097619823319344E-6
0.136474273000267         -0.06484323953093968     3.0902458627969612E-6
0.09725799567993655       0                        4.097619823319344E-6
0                         0                        5.209643339283517E-6
0.04825893493545653       -0.083540921452322       4.204375385635403E-6
-2                        0.49467570237448366      1.1792730953836546E-5
-2                        0.2587551967714812       1.0943829921641279E-5
-1.8108872450663813       0.37611999723855494      1.1351939036778315E-5
0.11843581398008718       -2.1                     3.895247279167688E-6
0.3538398185171605        -2.1                     3.4238069006723334E-6
0.23790455401201951       -1.9095195768809718      3.6494471618157927E-6
0.4676574669449062        -0.1                     0
0.3639115504057773        -0.1                     0
0.41484073698070734       -0.19607074930896257     7.469932631023937E-7
0.27                      -0.1                     0
0.27                      0                        0
0.2093597961748373        -0.058752783995909975    1.7016982403928498E-6
0.27                      0                        0
0.18706786716800006       0                        2.633512526980284E-6
0.2093597961748373        -0.058752783995909975    1.7016982403928498E-6
0                         0                        5.209643339283517E-6
0                         0.10390640015745226      6.076347059138016E-6
-0.09240933680645019      0.05644175854491199      6.4037038601694034E-6
-2                        0.7305962079774864       1.2659271330407239E-5
-2                        0.49467570237448366      1.1792730953836546E-5
-1.8102978591166694       0.6121077323603339       1.2222488839061675E-5
0.3538398185171605        -2.1                     3.4238069006723334E-6
0.5892438230542343        -2.1                     2.973626851659132E-6
0.47351012803695564       -1.9096142074834344      3.182222459753026E-6
0.5822677116210757        -0.1                     0
0.4676574669449062        -0.1                     0
0.5254387392722403        -0.19828333020975616     5.48492189192465E-7
0                         0.10390640015745226      6.076347059138016E-6
0                         0.21464725366904303      7.216164731519761E-6
-0.09413192195342449      0.162719619652995        7.2840139144940205E-6
-2                        0.9665167135804887       1.3513995245655089E-5
-2                        0.7305962079774864       1.2659271330407239E-5
-1.809636460660011        0.8481252817224755       1.3097262854587248E-5
0.5892438230542343        -2.1                     2.973626851659132E-6
0.8246478275913076        -2.1                     2.5563570998874636E-6
0.7092119849183914        -1.9101441564387935      2.743998393301696E-6
0.7088801016846716        -0.1                     0
0.5822677116210757        -0.1                     0
0.6463164295287661        -0.20419523662202613     4.4465754178500773E-7
0                         0.21464725366904303      7.216164731519761E-6
0                         0.33402136525582626      8.560014410894605E-6
-0.10238192627319108      0.2773266173600838       8.396473891267531E-6
-2                        1.2024372191834916       1.4326288661847744E-5
-2                        0.9665167135804887       1.3513995245655089E-5
-1.8093966065345832       1.0848785704694899       1.3947602211256552E-5
0.8246478275913076        -2.1                     2.5563570998874636E-6
1.060051832128381         -2.1                     2.179359400511437E-6
0.944810122475995         -1.9110638723910947      2.3447685180732153E-6
0.8462977796009774        -0.1                     0
0.7088801016846716        -0.1                     0
0.7768427587250946        -0.20990692940404454     3.7279379910476173E-7
0.9855914897201027        -0.1                     0
0.8462977796009774        -0.1                     0
0.913331841434306         -0.21558011435769117     3.2059229571219875E-7
0                         0.33402136525582626      8.560014410894605E-6
0                         0.4654409456151904       1.0077822993228088E-5
-0.11195765141043862      0.40324858292617355      9.679654857152501E-6
-2                        1.4383577247864943       1.5066466900309023E-5
-2                        1.2024372191834916       1.4326288661847744E-5
-1.8102250904199269       1.3218538434612288       1.4739777094116085E-5
1.060051832128381         -2.1                     2.179359400511437E-6
1.295455836665455         -2.1                     1.845864299171205E-6
1.1802724333881178        -1.9121585231134839      1.989481452909486E-6
1.125026545438824         -0.1                     0
0.9855914897201027        -0.1                     0
1.0526738918134877        -0.21908653224120095     2.7615856070004454E-7
0                         0.4654409456151904       1.0077822993228088E-5
0                         0.610624405923613        1.1739354315173508E-5
-0.12289197340930254      0.5418004846451476       1.1098202624961556E-5
-2                        1.6742782303894965       1.57075766289409E-5
-2                        1.4383577247864943       1.5066466900309023E-5
-1.8117366697933595       1.5575821788674828       1.5439987751507284E-5
1.295455836665455         -2.1                     1.845864299171205E-6
1.530859841202528         -2.1                     1.5557702437930943E-6
1.415644348200134         -1.9131497033115414      1.6790076512011308E-6
1.2644616011575456        -0.1                     0
1.125026545438824         -0.1                     0
1.192874707343497         -0.22084913007607143     2.38289670307655E-7
1.4038966568762674        -0.1                     0
1.2644616011575456        -0.1                     0
1.332907164897741         -0.22178949665731593     2.0682980985606092E-7
0                         0.610624405923613        1.1739354315173508E-5
0                         0.7710264798716884       1.3516265334878949E-5
-0.13536872088927018      0.6951252260151842       1.2626983073724992E-5
-2                        1.910198735992499        1.6226798274875598E-5
-2                        1.6742782303894965       1.57075766289409E-5
-1.8133091131503543       1.7928042318094808       1.6026300517231558E-5
1.530859841202528         -2.1                     1.5557702437930943E-6
1.7662638457396016        -2.1                     1.3066895347166772E-6
1.6509678419102916        -1.913947536518745       1.411480061566353E-6
1.5433317125949886        -0.1                     0
1.4038966568762674        -0.1                     0
1.4728399671468908        -0.22170163536203236     1.7967820754133954E-7
1.6827667683137104        -0.1                     0
1.5433317125949886        -0.1                     0
1.6126369874543267        -0.22130472154584246     1.5678890293842598E-7
0                         0.7710264798716884       1.3516265334878949E-5
0                         0.9482303952029425       1.5375991843228416E-5
-0.14885945969644046      0.8648426735342333       1.4232555645908596E-5
-2                        2.146119241595502        1.6606463567851457E-5
-2                        1.910198735992499        1.6226798274875598E-5
-1.8142915345256305       2.0277163781428866       1.647979869685324E-5
1.7662638457396016        -2.1                     1.3066895347166772E-6
2.001667850276675         -2.1                     1.0949262331517155E-6
1.8862179694928296        -1.9145872085847693      1.1834567461241877E-6
1.8222018240324316        -0.1                     0
1.6827667683137104        -0.1                     0
1.7524205024856452        -0.22053470949905415     1.371128783105552E-7
0                         0.9482303952029425       1.5375991843228416E-5
0                         1.1439937446136246       1.7273983704058662E-5
-0.16192274258080808      1.0514843059799799       1.5868524182792364E-5
-2                        2.382039747198504        1.6834741048364252E-5
-2                        2.146119241595502        1.6606463567851457E-5
-1.8145440777929016       2.2632242380517997       1.6787338851621E-5
2.001667850276675         -2.1                     1.0949262331517155E-6
2.2370718548137485        -2.1                     9.162309530410384E-7
2.1212403142882224        -1.9149067733046004      9.907635994650432E-7
1.9616368797511532        -0.1                     0
1.8222018240324316        -0.1                     0
1.8921889778912155        -0.21910083407876818     1.1972903361120128E-7
0                         1.1439937446136246       1.7273983704058662E-5
0                         1.3588800130833947       1.9135226896006814E-5
-0.1732581259874024       1.2542482820910217       1.747398601643667E-5
-2                        2.617960252801507        1.690605635512978E-5
-2                        2.382039747198504        1.6834741048364252E-5
-1.8145535266948256       2.4988131618576177       1.6938635029785222E-5
2.2370718548137485        -2.1                     9.162309530410384E-7
2.4724758593508214        -2.1                     7.663068032923491E-7
2.3561757520121613        -1.9147880629664602      8.287992738581995E-7
2.101071935469875         -0.1                     0
1.9616368797511532        -0.1                     0
2.0316898183392325        -0.21925732829813563     1.0630921362607067E-7
0                         1.3588800130833947       1.9135226896006814E-5
0                         1.5858597535302605       2.0814066875559226E-5
-0.1795084219252066       1.473580209319907        1.9004650810232467E-5
0                         1.5858597535302605       2.0814066875559226E-5
0                         1.8143948151476934       2.217448101370446E-5
-0.18186824464524037      1.6998398195295814       2.033385694619261E-5
-2                        2.853880758404509        1.682129250005465E-5
-2                        2.617960252801507        1.690605635512978E-5
-1.8145862475632197       2.734488951757493        1.6930984978536663E-5
2.4724758593508214        -2.1                     7.663068032923491E-7
2.707879863887895         -2.1                     6.411071795505466E-7
2.5899536735415256        -1.9134352851616074      6.938168897166197E-7
2.2405069911885964        -0.1                     0
2.101071935469875         -0.1                     0
2.170954403518864         -0.21946306339801872     9.469777679530081E-8
2.379942046907318         -0.1                     0
2.2405069911885964        -0.1                     0
2.309867120532118         -0.22014465275618314     8.489559199452377E-8
2.519377102626039         -0.1                     0
2.379942046907318         -0.1                     0
2.4488005906732924        -0.2209684430572204      7.633221685744351E-8
2.658812158344761         -0.1                     0
2.519377102626039         -0.1                     0
2.5880989398843437        -0.22170854871881326     6.867224029124191E-8
2.7982472140634824        -0.1                     0
2.658812158344761         -0.1                     0
2.7277088914998533        -0.22229159769563386     6.177538185362239E-8
2.937682269782204         -0.1                     0
2.7982472140634824        -0.1                     0
2.8673465975262697        -0.22265964559435705     5.555036566302588E-8
0                         1.8143948151476934       2.217448101370446E-5
0                         2.0429298767651267       2.317768399659046E-5
-0.18216771003371712      1.9273041279334155       2.1383198009640197E-5
0                         2.0429298767651267       2.317768399659046E-5
0                         2.2714649383825596       2.3804480621625988E-5
-0.18229260576086537      2.1562463098664746       2.2116730444371282E-5
-2                        3.0898012640075114       1.6587795889482614E-5
-2                        2.853880758404509        1.682129250005465E-5
-1.8147035551189845       2.970305247884012        1.676824094186263E-5
2.707879863887895         -2.1                     6.411071795505466E-7
2.9432838684249694        -2.1                     5.369857730278905E-7
2.825796342759402         -1.9132455382417968      5.80435537491764E-7
3.077117325500925         -0.1                     0
2.937682269782204         -0.1                     0
3.006845660651237         -0.22280196545492512     4.993704586328062E-8
3.216552381219647         -0.1                     0
3.077117325500925         -0.1                     0
3.146241572668467         -0.2227424114060532      4.4887836243388365E-8
0                         2.2714649383825596       2.3804480621625988E-5
0                         2.499999999999993        2.4043100861832222E-5
-0.1823419249881126       2.385524144460483        2.251118193551046E-5
-2                        3.3257217696105137       1.621917963929755E-5
-2                        3.0898012640075114       1.6587795889482614E-5
-1.8147743583868332       3.2062665836821345       1.6460759399185907E-5
2.9432838684249694        -2.1                     5.369857730278905E-7
3.178687872962042         -2.1                     4.507509072439853E-7
3.0614391638272775        -1.912865551540289       4.86467188766628E-7
3.355987436938369         -0.1                     0
3.216552381219647         -0.1                     0
3.2856120273994947        -0.22253224234583127     4.03663382934611E-8
3.4954224926570903        -0.1                     0
3.355987436938369         -0.1                     0
3.425086090583705         -0.22232270811302624     3.636451942366454E-8
0                         2.499999999999993        2.4043100861832222E-5
0                         2.7285350616174258       2.388948192634681E-5
-0.1822236976140133       2.614944241793911        2.255819523521235E-5
0                         2.7285350616174258       2.388948192634681E-5
0                         2.957070123234859        2.334735356509845E-5
-0.18182831952101428      2.844479394520134        2.2257907563535274E-5
-2                        3.561642275213515        1.5734886227917565E-5
-2                        3.3257217696105137       1.621917963929755E-5
-1.814508241982538        3.4422189006433794       1.602545634993617E-5
3.178687872962042         -2.1                     4.507509072439853E-7
3.4140918774991156        -2.1                     3.7966638471389347E-7
3.2970061712504695        -1.9127564014644418      4.088911143629231E-7
3.6348575483758117        -0.1                     0
3.4954224926570903        -0.1                     0
3.564745989017066         -0.22231573791816542     3.287913388924704E-8
3.774292604094533         -0.1                     0
3.6348575483758117        -0.1                     0
3.704437425395104         -0.22251683930070898     2.985229368610998E-8
0                         2.957070123234859        2.334735356509845E-5
0                         3.185605184852292        2.242813430060544E-5
-0.18103431719503904      3.0739776433646573       2.1618501479351526E-5
-2                        3.797562780816517        1.5159443723747505E-5
-2                        3.561642275213515        1.5734886227917565E-5
-1.8134260535470643       3.6778830759728005       1.5485436058554616E-5
3.4140918774991156        -2.1                     3.7966638471389347E-7
3.6494958820361894        -2.1                     3.214229528881019E-7
3.5325985356809597        -1.9130223104015338      3.451541983840508E-7
3.913727659813255         -0.1                     0
3.774292604094533         -0.1                     0
3.844001964580865         -0.2227039137934069      2.7183719292233534E-8
4.053162715531976         -0.1                     0
3.913727659813255         -0.1                     0
3.983533451182107         -0.22272860799811336     2.4808473773404712E-8
0                         3.185605184852292        2.242813430060544E-5
0                         3.4141402464697252       2.115065230753222E-5
-0.17941097912602774      3.302977961818844        2.0659435988006196E-5
0                         3.4141402464697252       2.115065230753222E-5
0                         3.641119986916597        1.9552696289950243E-5
-0.17613686177319635      3.5289963861416385       1.9422527732555865E-5
0                         3.641119986916597        1.9552696289950243E-5
0                         3.8560062553863665       1.776629505054703E-5
-0.1690979428154845       3.7473075363988624       1.7984473945108886E-5
0                         3.8560062553863665       1.776629505054703E-5
0                         4.051769604797049        1.593482572726528E-5
-0.15879845081525432      3.951390900587333        1.643965228013311E-5
-2                        4.0334832864195205       1.4521323593073036E-5
-2                        3.797562780816517        1.5159443723747505E-5
-1.812388910890345        3.9139707177051837       1.4865657548631129E-5
3.6494958820361894        -2.1                     3.214229528881019E-7
3.8848998865732622        -2.1                     2.740977800001116E-7
3.768076711339408         -1.9134476851189879      2.931732304532929E-7
4.192597771250697         -0.1                     0
4.053162715531976         -0.1                     0
4.123173315966267         -0.22265607970849863     2.2715654244455997E-8
4.332032826969419         -0.1                     0
4.192597771250697         -0.1                     0
4.262887984957112         -0.2225697145639814      2.0898648718461976E-8
0                         4.051769604797049        1.593482572726528E-5
0                         4.228973520128305        1.4133916416895396E-5
-0.14640986302166575      4.137549911688174        1.4874379804650394E-5
-2                        4.269403792022521        1.3851336989141704E-5
-2                        4.0334832864195205       1.4521323593073036E-5
-1.8112369623242779       4.150177172422889        1.4197158790378957E-5
3.8848998865732622        -2.1                     2.740977800001116E-7
4.120303891110336         -2.1                     2.3611113147170814E-7
4.003253548477235         -1.9137409163502896      2.512195791837028E-7
4.471467882688141         -0.1                     0
4.332032826969419         -0.1                     0
4.402591687730564         -0.22245830723910032     1.9334397981368912E-8
4.610902938406863         -0.1                     0
4.471467882688141         -0.1                     0
4.542291634883714         -0.22231805150883424     1.800321639753336E-8
0                         4.228973520128305        1.4133916416895396E-5
0                         4.389375594076383        1.2409844775701424E-5
-0.13478616034299182      4.306646857114516        1.3337425600467063E-5
-2                        4.505324297625524        1.3180549588163195E-5
-2                        4.269403792022521        1.3851336989141704E-5
-1.8108990640579306       4.3863985952651126       1.3512271453448307E-5
4.120303891110336         -2.1                     2.3611113147170814E-7
4.35570789564741          -2.1                     2.061853213004494E-7
4.238223236357064         -1.9136704712417378      2.1783609223359576E-7
4.750337994125584         -0.1                     0
4.610902938406863         -0.1                     0
4.681973398034401         -0.222155867764129       1.6890055467711217E-8
0                         4.389375594076383        1.2409844775701424E-5
0                         4.534559054384806        1.0797245988853622E-5
-0.12390885147414508      4.460050095550938        1.1872484042633474E-5
0                         4.534559054384806        1.0797245988853622E-5
0                         4.665978634744171        9.328694578015828E-6
-0.11431750405086824      4.598908349427916        1.052015786283713E-5
-2                        4.7412448032285255       1.2537852488907401E-5
-2                        4.505324297625524        1.3180549588163195E-5
-1.810825790900088        4.622746456789798        1.2842105681404542E-5
4.8897730498443055        -0.1                     0
4.750337994125584         -0.1                     0
4.82158565554097          -0.22194589576647897     1.5978018471113424E-8
4.35570789564741          -2.1                     2.061853213004494E-7
4.591111900184483         -2.1                     1.8330853643596754E-7
4.473364488870661         -1.913217936025103       1.9184535741281432E-7
5.029208105563027         -0.1                     0
4.8897730498443055        -0.1                     0
4.961178047977154         -0.2217109037287116      1.5258562215085978E-8
0                         4.665978634744171        9.328694578015828E-6
0                         4.785352746330957        8.040172382491624E-6
-0.10616172329562268      4.724920711233303        9.316221862771666E-6
-2                        4.977165308831528        1.1947504164825801E-5
-2                        4.7412448032285255       1.2537852488907401E-5
-1.810934242614844        4.8591477658263225       1.2214739820856428E-5
4.591111900184483         -2.1                     1.8330853643596754E-7
4.826515904721557         -2.1                     1.6670462790329526E-7
4.70881662155852          -1.9126859944033898      1.7238240970548992E-7
5.168643161281748         -0.1                     0
5.029208105563027         -0.1                     0
5.100788308544586         -0.22157220136551412     1.4737031190881836E-8
0                         4.785352746330957        8.040172382491624E-6
0                         4.896093599842548        6.975864337926294E-6
-0.09875504944445097      4.840263815955695        8.291833198049699E-6
-2                        5.21308581443453         1.1427129241858066E-5
-2                        4.977165308831528        1.1947504164825801E-5
-1.8109653461710749       5.095612306736077        1.1651962662046056E-5
-2                        5.449006320037531        1.0986664233015453E-5
-2                        5.21308581443453         1.1427129241858066E-5
-1.8104698060615043       5.332418170827913        1.1167249662761732E-5
4.826515904721557         -2.1                     1.6670462790329526E-7
5.061919909258631         -2.1                     1.5580908932831566E-7
4.944317778872884         -1.912532314174615       1.588304049967962E-7
5.308078217000469         -0.1                     0
5.168643161281748         -0.1                     0
5.2402854346454175        -0.22163605167058242     1.4418262425529303E-8
0                         4.896093599842548        6.975864337926294E-6
0                         5                        6.224292965322818E-6
-0.09752139268225549      4.944990626336669        7.546010416540626E-6
-2                        5.6849268256405345       1.0628523153880871E-5
-2                        5.449006320037531        1.0986664233015453E-5
-1.8095149671305624       5.569514327014867        1.0766901215275963E-5
5.447513272719191         -0.1                     0
5.308078217000469         -0.1                     0
5.379471834422474         -0.2218116247760093      1.4285935491529966E-8
5.061919909258631         -2.1                     1.5580908932831566E-7
5.297323913795703         -2.1                     1.502511129679178E-7
5.179835162781797         -1.9126174191717071      1.5072753153334945E-7
5.586948328437913         -0.1                     0
5.447513272719191         -0.1                     0
5.518295822878883         -0.22178694500657162     1.4300750101211977E-8
5.726383384156634         -0.1                     0
5.586948328437913         -0.1                     0
5.65697084260933          -0.22167894489010276     1.447563762518423E-8
0                         5                        6.224292965322818E-6
0.09725799567993704       5                        4.875752903893177E-6
0.04549028241684818       5.084242024656803        5.288775996892202E-6
-2                        5.920847331243536        1.0348899598438768E-5
-2                        5.6849268256405345       1.0628523153880871E-5
-1.8068187192012128       5.80682498208139         1.044946442351793E-5
-2                        6.156767836846538        1.0139792376167002E-5
-2                        5.920847331243536        1.0348899598438768E-5
-1.8026107942666219       6.047812453281348        1.0205332848401969E-5
5.297323913795703         -2.1                     1.502511129679178E-7
5.532727918332776         -2.1                     1.4984170714495004E-7
5.415313699135471         -1.9127954095606348      1.4779571492565818E-7
5.865818439875356         -0.1                     0
5.726383384156634         -0.1                     0
5.795592355771693         -0.22128094252934744     1.4786589999576313E-8
6.0052534955940775        -0.1                     0
5.865818439875356         -0.1                     0
5.934404023592075         -0.2209415381826476      1.5278354688864526E-8
0.09725799567993704       5                        4.875752903893177E-6
0.18706786716800028       5                        3.1055684932100078E-6
0.1341775722796173        5.076781767364179        3.862485017408926E-6
0.18706786716800028       5                        3.1055684932100078E-6
0.27                      5                        0
0.20588771972661823       5.079897859618956        2.220214933222698E-6
-2                        6.39268834244954         9.991276165468355E-6