% Model:                CdZnTE_280211_2D_SE_WP_Cathode.mph
% Version:              COMSOL 4.1.0.88
% Date:                 Jul 11 2011, 14:32
% Dimension:            2
% Nodes:                56934
% Expressions:          1
% Description:          Electric potential
% x                       y                        V (V)
-2                        -1.8645293522661046      6.484724303652826E-5
-2                        -2.1                     6.445254133809558E-5
-1.846364360343395        -1.9401710821195468      6.446585936902635E-5
-2                        -2.1                     6.445254133809558E-5
-1.764796222180569        -2.1                     6.405990618312965E-5
-1.846364360343395        -1.9401710821195468      6.446585936902635E-5
-2                        -1.6286088480525398      6.604164816904284E-5
-2                        -1.8645293522661046      6.484724303652826E-5
-1.8245167365948494       -1.7449367782940313      6.512855614687019E-5
-2                        -1.3926883424495373      6.805617733123204E-5
-2                        -1.6286088480525398      6.604164816904284E-5
-1.8168623695316584       -1.512189523512412       6.66805315722411E-5
-1.764796222180569        -2.1                     6.405990618312965E-5
-1.529392217779427        -2.1                     6.288845121634697E-5
-1.6425247983867886       -1.8914043628477542      6.385043168361581E-5
-2                        -1.1567678368465348      7.092064085930922E-5
-2                        -1.3926883424495373      6.805617733123204E-5
-1.8122455777218598       -1.2767049080338484      6.908182365381342E-5
-1.529392217779427        -2.1                     6.288845121634697E-5
-1.2939882132423535       -2.1                     6.0961822109375565E-5
-1.3989614082807784       -1.9110406672624995      6.214927673259365E-5
-2                        -0.920847331243532       7.46671279294486E-5
-2                        -1.1567678368465348      7.092064085930922E-5
-1.8109836351205506       -1.0405681798744235      7.236580594396378E-5
-1.2939882132423535       -2.1                     6.0961822109375565E-5
-1.05858420870528         -2.1                     5.8323492724106806E-5
-1.1696308739542287       -1.909293466203794       5.987730040883439E-5
-2                        -0.6849268256405294      7.93195524843994E-5
-2                        -0.920847331243532       7.46671279294486E-5
-1.810295659913922        -0.8045304929098868      7.65511944401025E-5
-1.05858420870528         -2.1                     5.8323492724106806E-5
-0.8231802041682066       -2.1                     5.5040587178082417E-5
-0.9374566002124125       -1.908700173002049       5.690873583169051E-5
-2                        -0.4490063200375265      8.488010058048494E-5
-2                        -0.6849268256405294      7.93195524843994E-5
-1.8097491300494364       -0.5683692088677957      8.166088178771895E-5
-0.8231802041682066       -2.1                     5.5040587178082417E-5
-0.587776199631133        -2.1                     5.1208248158788916E-5
-0.702442025043489        -1.9095207699513645      5.32978972232917E-5
-2                        -0.21308581443452423     9.131419267340085E-5
-2                        -0.4490063200375265      8.488010058048494E-5
-1.8097640917460813       -0.3318487261805915      8.769498252840669E-5
-0.587776199631133        -2.1                     5.1208248158788916E-5
-0.3523721950940597       -2.1                     4.6951253266451016E-5
-0.4672480472817225       -1.9100923020549863      4.9187701783750715E-5
-2                        0.02283469116847825      9.85369988013889E-5
-2                        -0.21308581443452423     9.131419267340085E-5
-1.8105412062410897       -0.0958658833976639      9.457537218981821E-5
-0.3523721950940597       -2.1                     4.6951253266451016E-5
-0.11696819055698615      -2.1                     4.242053144109761E-5
-0.23252005099952355      -1.9100649405128722      4.473064280048249E-5
-2                        0.2587551967714812       1.0640539296757635E-4
-2                        0.02283469116847825      9.85369988013889E-5
-1.8110785387248838       0.14021195088646163      1.0220276710330583E-4
-0.11696819055698615      -2.1                     4.242053144109761E-5
0.11843581398008718       -2.1                     3.778290515863489E-5
0.0028064179962684482     -1.9097863682838865      4.006998015146034E-5
0.3639115504057773        -0.1                     0
0.27                      -0.1                     0
0.3155232914343534        -0.1891591978532564      1.0685464136982237E-5
0.18706786716800006       0                        2.5454273454247653E-5
0.09725799567993655       0                        3.96253126375399E-5
0.136474273000267         -0.06484323953093968     2.9894615966172988E-5
0.09725799567993655       0                        3.96253126375399E-5
0                         0                        5.040141540240488E-5
0.04825893493545653       -0.083540921452322       4.0687993010770256E-5
-2                        0.49467570237448366      1.147183854921017E-4
-2                        0.2587551967714812       1.0640539296757635E-4
-1.8108872450663813       0.37611999723855494      1.1039345144881815E-4
0.11843581398008718       -2.1                     3.778290515863489E-5
0.3538398185171605        -2.1                     3.320469371709702E-5
0.23790455401201951       -1.9095195768809718      3.539578542535907E-5
0.4676574669449062        -0.1                     0
0.3639115504057773        -0.1                     0
0.41484073698070734       -0.19607074930896257     7.237438536678996E-6
0.27                      -0.1                     0
0.27                      0                        0
0.2093597961748373        -0.058752783995909975    1.6458041834792253E-5
0.27                      0                        0
0.18706786716800006       0                        2.5454273454247653E-5
0.2093597961748373        -0.058752783995909975    1.6458041834792253E-5
0                         0                        5.040141540240488E-5
0                         0.10390640015745226      5.8755365975201095E-5
-0.09240933680645019      0.05644175854491199      6.196339763841037E-5
-2                        0.7305962079774864       1.2322684272371982E-4
-2                        0.49467570237448366      1.147183854921017E-4
-1.8102978591166694       0.6121077323603339       1.1892624746991382E-4
0.3538398185171605        -2.1                     3.320469371709702E-5
0.5892438230542343        -2.1                     2.883304738545072E-5
0.47351012803695564       -1.9096142074834344      3.08587274114736E-5
0.5822677116210757        -0.1                     0
0.4676574669449062        -0.1                     0
0.5254387392722403        -0.19828333020975616     5.3151476176741455E-6
0                         0.10390640015745226      5.8755365975201095E-5
0                         0.21464725366904303      6.974382942877173E-5
-0.09413192195342449      0.162719619652995        7.045383185998871E-5
-2                        0.9665167135804887       1.3165035781629854E-4
-2                        0.7305962079774864       1.2322684272371982E-4
-1.809636460660011        0.8481252817224755       1.2752685595597942E-4
0.5892438230542343        -2.1                     2.883304738545072E-5
0.8246478275913076        -2.1                     2.4780738091068143E-5
0.7092119849183914        -1.9101441564387935      2.660322011568783E-5
0.7088801016846716        -0.1                     0
0.5822677116210757        -0.1                     0
0.6463164295287661        -0.20419523662202613     4.309343619218818E-6
0                         0.21464725366904303      6.974382942877173E-5
0                         0.33402136525582626      8.269993807439277E-5
-0.10238192627319108      0.2773266173600838       8.118873012874782E-5
-2                        1.2024372191834916       1.396975978378211E-4
-2                        0.9665167135804887       1.3165035781629854E-4
-1.8093966065345832       1.0848785704694899       1.3592339605762138E-4
0.8246478275913076        -2.1                     2.4780738091068143E-5
1.060051832128381         -2.1                     2.111890627304352E-5
0.944810122475995         -1.9110638723910947      2.2725935080668786E-5
0.8462977796009774        -0.1                     0
0.7088801016846716        -0.1                     0
0.7768427587250946        -0.20990692940404454     3.612953017307211E-6
0.9855914897201027        -0.1                     0
0.8462977796009774        -0.1                     0
0.913331841434306         -0.21558011435769117     3.10687900770732E-6
0                         0.33402136525582626      8.269993807439277E-5
0                         0.4654409456151904       9.733444691956398E-5
-0.11195765141043862      0.40324858292617355      9.357406652138194E-5
-2                        1.4383577247864943       1.4708641004199265E-4
-2                        1.2024372191834916       1.396975978378211E-4
-1.8102250904199269       1.3218538434612288       1.437945168740345E-4
1.060051832128381         -2.1                     2.111890627304352E-5
1.295455836665455         -2.1                     1.787861190939608E-5
1.1802724333881178        -1.9121585231134839      1.927459268372527E-5
1.125026545438824         -0.1                     0
0.9855914897201027        -0.1                     0
1.0526738918134877        -0.21908653224120095     2.6759474458694684E-6
0                         0.4654409456151904       9.733444691956398E-5
0                         0.610624405923613        1.1335817870747248E-4
-0.12289197340930254      0.5418004846451476       1.0727128789254276E-4
-2                        1.6742782303894965       1.5356119069564477E-4
-2                        1.4383577247864943       1.4708641004199265E-4
-1.8117366697933595       1.5575821788674828       1.5081682582566202E-4
1.295455836665455         -2.1                     1.787861190939608E-5
1.530859841202528         -2.1                     1.5058595838491977E-5
1.415644348200134         -1.9131497033115414      1.625736027162812E-5
1.2644616011575456        -0.1                     0
1.125026545438824         -0.1                     0
1.192874707343497         -0.22084913007607143     2.3085629736122494E-6
1.4038966568762674        -0.1                     0
1.2644616011575456        -0.1                     0
1.332907164897741         -0.22178949665731593     2.0032464517976494E-6
0                         0.610624405923613        1.1335817870747248E-4
0                         0.7710264798716884       1.3050193796472704E-4
-0.13536872088927018      0.6951252260151842       1.2204213868786738E-4
-2                        1.910198735992499        1.5890642509366592E-4
-2                        1.6742782303894965       1.5356119069564477E-4
-1.8133091131503543       1.7928042318094808       1.5678354779108636E-4
1.530859841202528         -2.1                     1.5058595838491977E-5
1.7662638457396016        -2.1                     1.2635421645177352E-5
1.6509678419102916        -1.913947536518745       1.3655856842301393E-5
1.5433317125949886        -0.1                     0
1.4038966568762674        -0.1                     0
1.4728399671468908        -0.22170163536203236     1.7396579499653877E-6
1.6827667683137104        -0.1                     0
1.5433317125949886        -0.1                     0
1.6126369874543267        -0.22130472154584246     1.5173530291814313E-6
0                         0.7710264798716884       1.3050193796472704E-4
0                         0.9482303952029425       1.4845781941498517E-4
-0.14885945969644046      0.8648426735342333       1.3756947920557985E-4
-2                        2.146119241595502        1.6295654477233598E-4
-2                        1.910198735992499        1.5890642509366592E-4
-1.8142915345256305       2.0277163781428866       1.6151679240177785E-4
1.7662638457396016        -2.1                     1.2635421645177352E-5
2.001667850276675         -2.1                     1.0572949872177756E-5
1.8862179694928296        -1.9145872085847693      1.1436421324980298E-5
1.8222018240324316        -0.1                     0
1.6827667683137104        -0.1                     0
1.7524205024856452        -0.22053470949905415     1.32616852771235E-6
0                         0.9482303952029425       1.4845781941498517E-4
0                         1.1439937446136246       1.6680476321224847E-4
-0.16192274258080808      1.0514843059799799       1.5341182982198502E-4
-2                        2.382039747198504        1.6560261070695155E-4
-2                        2.146119241595502        1.6295654477233598E-4
-1.8145440777929016       2.2632242380517997       1.6489614425246058E-4
2.001667850276675         -2.1                     1.0572949872177756E-5
2.2370718548137485        -2.1                     8.829644807103102E-6
2.1212403142882224        -1.9149067733046004      9.55827810483525E-6
1.9616368797511532        -0.1                     0
1.8222018240324316        -0.1                     0
1.8921889778912155        -0.21910083407876818     1.157186961708848E-6
0                         1.1439937446136246       1.6680476321224847E-4
0                         1.3588800130833947       1.8483025350764693E-4
-0.1732581259874024       1.2542482820910217       1.6898860461340908E-4
-2                        2.617960252801507        1.667964583746411E-4
-2                        2.382039747198504        1.6560261070695155E-4
-1.8145535266948256       2.4988131618576177       1.6682710406441375E-4
2.2370718548137485        -2.1                     8.829644807103102E-6
2.4724758593508214        -2.1                     7.36346645129981E-6
2.3561757520121613        -1.9147880629664602      7.976463222060149E-6
2.101071935469875         -0.1                     0
1.9616368797511532        -0.1                     0
2.0316898183392325        -0.21925732829813563     1.0265467028603788E-6
0                         1.3588800130833947       1.8483025350764693E-4
0                         1.5858597535302605       2.011381109412221E-4
-0.1795084219252066       1.473580209319907        1.838778429588749E-4
0                         1.5858597535302605       2.011381109412221E-4
0                         1.8143948151476934       2.144178448754355E-4
-0.18186824464524037      1.6998398195295814       1.9686147546605734E-4
-2                        2.853880758404509        1.665527213530097E-4
-2                        2.617960252801507        1.667964583746411E-4
-1.8145862475632197       2.734488951757493        1.672895294234252E-4
2.4724758593508214        -2.1                     7.36346645129981E-6
2.707879863887895         -2.1                     6.134742850352164E-6
2.5899536735415256        -1.9134352851616074      6.654326014676519E-6
2.2405069911885964        -0.1                     0
2.101071935469875         -0.1                     0
2.170954403518864         -0.21946306339801872     9.133834255290292E-7
2.379942046907318         -0.1                     0
2.2405069911885964        -0.1                     0
2.309867120532118         -0.22014465275618314     8.176804325055499E-7
2.519377102626039         -0.1                     0
2.379942046907318         -0.1                     0
2.4488005906732924        -0.2209684430572204      7.339070065759893E-7
2.658812158344761         -0.1                     0
2.519377102626039         -0.1                     0
2.5880989398843437        -0.22170854871881326     6.588101740340598E-7
2.7982472140634824        -0.1                     0
2.658812158344761         -0.1                     0
2.7277088914998533        -0.22229159769563386     5.910253506882337E-7
2.937682269782204         -0.1                     0
2.7982472140634824        -0.1                     0
2.8673465975262697        -0.22265964559435705     5.296650067641755E-7
0                         1.8143948151476934       2.144178448754355E-4
0                         2.0429298767651267       2.242966055965748E-4
-0.18216771003371712      1.9273041279334155       2.0718553024469326E-4
0                         2.0429298767651267       2.242966055965748E-4
0                         2.2714649383825596       2.305896314657146E-4
-0.18229260576086537      2.1562463098664746       2.1450852805042863E-4
-2                        3.0898012640075114       1.649489481422646E-4
-2                        2.853880758404509        1.665527213530097E-4
-1.8147035551189845       2.970305247884012        1.6632718241813279E-4
2.707879863887895         -2.1                     6.134742850352164E-6
2.9432838684249694        -2.1                     5.1076082517221655E-6
2.825796342759402         -1.9132455382417968      5.53901486763719E-6
3.077117325500925         -0.1                     0
2.937682269782204         -0.1                     0
3.006845660651237         -0.22280196545492512     4.7414080955138637E-7
3.216552381219647         -0.1                     0
3.077117325500925         -0.1                     0
3.146241572668467         -0.2227424114060532      4.239818838281167E-7
0                         2.2714649383825596       2.305896314657146E-4
0                         2.499999999999993        2.3318239958386834E-4
-0.1823419249881126       2.385524144460483        2.186060930087067E-4
-2                        3.3257217696105137       1.6212367541837452E-4
-2                        3.0898012640075114       1.649489481422646E-4
-1.8147743583868332       3.2062665836821345       1.6404705953218597E-4
2.9432838684249694        -2.1                     5.1076082517221655E-6
3.178687872962042         -2.1                     4.250511151177069E-6
3.0614391638272775        -1.912865551540289       4.608898676648457E-6
3.355987436938369         -0.1                     0
3.216552381219647         -0.1                     0
3.2856120273994947        -0.22253224234583127     3.7882132034852195E-7
3.4954224926570903        -0.1                     0
3.355987436938369         -0.1                     0
3.425086090583705         -0.22232270811302624     3.385522324935842E-7
0                         2.499999999999993        2.3318239958386834E-4
0                         2.7285350616174258       2.3203350682136613E-4
-0.1822236976140133       2.614944241793911        2.1939706701596255E-4
0                         2.7285350616174258       2.3203350682136613E-4
0                         2.957070123234859        2.2717566843241094E-4
-0.18182831952101428      2.844479394520134        2.168815694445577E-4
-2                        3.561642275213515        1.5827200876149914E-4
-2                        3.3257217696105137       1.6212367541837452E-4
-1.814508241982538        3.4422189006433794       1.6061938717833315E-4
3.178687872962042         -2.1                     4.250511151177069E-6
3.4140918774991156        -2.1                     3.536201257023183E-6
3.2970061712504695        -1.9127564014644418      3.834024225801987E-6
3.6348575483758117        -0.1                     0
3.4954224926570903        -0.1                     0
3.564745989017066         -0.22231573791816542     3.0309887181600183E-7
3.774292604094533         -0.1                     0
3.6348575483758117        -0.1                     0
3.704437425395104         -0.22251683930070898     2.7187240909325585E-7
0                         2.957070123234859        2.2717566843241094E-4
0                         3.185605184852292        2.187148936895697E-4
-0.18103431719503904      3.0739776433646573       2.1113652370166564E-4
-2                        3.797562780816517        1.5363796333600025E-4
-2                        3.561642275213515        1.5827200876149914E-4
-1.8134260535470643       3.6778830759728005       1.5627353164985875E-4
3.4140918774991156        -2.1                     3.536201257023183E-6
3.6494958820361894        -2.1                     2.9414276632646664E-6
3.5325985356809597        -1.9130223104015338      3.1888435878525875E-6
3.913727659813255         -0.1                     0
3.774292604094533         -0.1                     0
3.844001964580865         -0.2227039137934069      2.439056669178113E-7
4.053162715531976         -0.1                     0
3.913727659813255         -0.1                     0
3.983533451182107         -0.22272860799811336     2.1856939362350633E-7
0                         3.185605184852292        2.187148936895697E-4
0                         3.4141402464697252       2.0682796445663056E-4
-0.17941097912602774      3.302977961818844        2.0234589704069372E-4
0                         3.4141402464697252       2.0682796445663056E-4
0                         3.641119986916597        1.9187082501439598E-4
-0.17613686177319635      3.5289963861416385       1.9090321601552776E-4
0                         3.641119986916597        1.9187082501439598E-4
0                         3.8560062553863665       1.7508876215606797E-4
-0.1690979428154845       3.7473075363988624       1.7752690827224282E-4
0                         3.8560062553863665       1.7508876215606797E-4
0                         4.051769604797049        1.5784293989368675E-4
-0.15879845081525432      3.951390900587333        1.6310539743142032E-4
-2                        4.0334832864195205       1.4850254251591816E-4
-2                        3.797562780816517        1.5363796333600025E-4
-1.812388910890345        3.9139707177051837       1.512605964138653E-4
3.6494958820361894        -2.1                     2.9414276632646664E-6
3.8848998865732622        -2.1                     2.4465161378381147E-6
3.768076711339408         -1.9134476851189879      2.652244297265409E-6
4.192597771250697         -0.1                     0
4.053162715531976         -0.1                     0
4.123173315966267         -0.22265607970849863     1.957236622150267E-7
4.332032826969419         -0.1                     0
4.192597771250697         -0.1                     0
4.262887984957112         -0.2225697145639814      1.7526155146370116E-7
0                         4.051769604797049        1.5784293989368675E-4
0                         4.228973520128305        1.408598008992006E-4
-0.14640986302166575      4.137549911688174        1.4845781999264836E-4
-2                        4.269403792022521        1.4316682572621396E-4
-2                        4.0334832864195205       1.4850254251591816E-4
-1.8112369623242779       4.150177172422889        1.4588495769994245E-4
3.8848998865732622        -2.1                     2.4465161378381147E-6
4.120303891110336         -2.1                     2.034913562320351E-6
4.003253548477235         -1.9137409163502896      2.206395331044894E-6
4.471467882688141         -0.1                     0
4.332032826969419         -0.1                     0
4.402591687730564         -0.22245830723910032     1.5693096516983246E-7
4.610902938406863         -0.1                     0
4.471467882688141         -0.1                     0
4.542291634883714         -0.22231805150883424     1.4050643890602125E-7
0                         4.228973520128305        1.408598008992006E-4
0                         4.389375594076383        1.2459014126042374E-4
-0.13478616034299182      4.306646857114516        1.340654526926908E-4
-2                        4.505324297625524        1.3792984070260802E-4
-2                        4.269403792022521        1.4316682572621396E-4
-1.8108990640579306       4.3863985952651126       1.4046115787907565E-4
4.120303891110336         -2.1                     2.034913562320351E-6
4.35570789564741          -2.1                     1.6927474837609838E-6
4.238223236357064         -1.9136704712417378      1.8358471830211013E-6
4.750337994125584         -0.1                     0
4.610902938406863         -0.1                     0
4.681973398034401         -0.222155867764129       1.258013744731506E-7
0                         4.389375594076383        1.2459014126042374E-4
0                         4.534559054384806        1.0937853247379605E-4
-0.12390885147414508      4.460050095550938        1.2035832774897404E-4
0                         4.534559054384806        1.0937853247379605E-4
0                         4.665978634744171        9.556160321840615E-5
-0.11431750405086824      4.598908349427916        1.0774811643082172E-4
-2                        4.7412448032285255       1.3306270368169414E-4
-2                        4.505324297625524        1.3792984070260802E-4
-1.810825790900088        4.622746456789798        1.352868171583941E-4
4.8897730498443055        -0.1                     0
4.750337994125584         -0.1                     0
4.82158565554097          -0.22194589576647897     1.1261892677003697E-7
4.35570789564741          -2.1                     1.6927474837609838E-6
4.591111900184483         -2.1                     1.4084245062914398E-6
4.473364488870661         -1.913217936025103       1.5275134743483359E-6
5.029208105563027         -0.1                     0
4.8897730498443055        -0.1                     0
4.961178047977154         -0.2217109037287116      1.0082100504386996E-7
0                         4.665978634744171        9.556160321840615E-5
0                         4.785352746330957        8.35296575539011E-5
-0.10616172329562268      4.724920711233303        9.661342593689958E-5
-2                        4.977165308831528        1.2878249782323885E-4
-2                        4.7412448032285255       1.3306270368169414E-4
-1.810934242614844        4.8591477658263225       1.3062118109131402E-4
4.591111900184483         -2.1                     1.4084245062914398E-6
4.826515904721557         -2.1                     1.1722762447239915E-6
4.70881662155852          -1.9126859944033898      1.2710087271561243E-6
5.168643161281748         -0.1                     0
5.029208105563027         -0.1                     0
5.100788308544586         -0.22157220136551412     9.035289200828335E-8
0                         4.785352746330957        8.35296575539011E-5
0                         4.896093599842548        7.380116421094226E-5
-0.09875504944445097      4.840263815955695        8.730126291776945E-5
-2                        5.21308581443453         1.2523125165001556E-4
-2                        4.977165308831528        1.2878249782323885E-4
-1.8109653461710749       5.095612306736077        1.2665241326496171E-4
-2                        5.449006320037531        1.224654586217516E-4
-2                        5.21308581443453         1.2523125165001556E-4
-1.8104698060615043       5.332418170827913        1.2347817948923427E-4
4.826515904721557         -2.1                     1.1722762447239915E-6
5.061919909258631         -2.1                     9.762528454550854E-7
4.944317778872884         -1.912532314174615       1.0580542597358157E-6
5.308078217000469         -0.1                     0
5.168643161281748         -0.1                     0
5.2402854346454175        -0.22163605167058242     8.113943559704365E-8
0                         4.896093599842548        7.380116421094226E-5
0                         5                        6.736770952000026E-5
-0.09752139268225549      4.944990626336669        8.087987839753061E-5
-2                        5.6849268256405345       1.2045921505794802E-4
-2                        5.449006320037531        1.224654586217516E-4
-1.8095149671305624       5.569514327014867        1.2111332956622474E-4
5.447513272719191         -0.1                     0
5.308078217000469         -0.1                     0
5.379471834422474         -0.2218116247760093      7.297815864569693E-8
5.061919909258631         -2.1                     9.762528454550854E-7
5.297323913795703         -2.1                     8.136606410317035E-7
5.179835162781797         -1.9126174191717071      8.81378748122845E-7
5.586948328437913         -0.1                     0
5.447513272719191         -0.1                     0
5.518295822878883         -0.22178694500657162     6.557962069276343E-8
5.726383384156634         -0.1                     0
5.586948328437913         -0.1                     0
5.65697084260933          -0.22167894489010276     5.893188555125735E-8
0                         5                        6.736770952000026E-5
0.09725799567993704       5                        5.2635019826736776E-5
0.04549028241684818       5.084242024656803        5.861451610105424E-5
-2                        5.920847331243536        1.1912008130839303E-4
-2                        5.6849268256405345       1.2045921505794802E-4
-1.8068187192012128       5.80682498208139         1.1948896282602906E-4
-2                        6.156767836846538        1.1831305381871429E-4
-2                        5.920847331243536        1.1912008130839303E-4
-1.8026107942666219       6.047812453281348        1.1847114804058261E-4
5.297323913795703         -2.1                     8.136606410317035E-7
5.532727918332776         -2.1                     6.789408266452857E-7
5.415313699135471         -1.9127954095606348      7.349490580588308E-7
5.865818439875356         -0.1                     0
5.726383384156634         -0.1                     0
5.795592355771693         -0.22128094252934744     5.287189210342168E-8
6.0052534955940775        -0.1                     0
5.865818439875356         -0.1                     0
5.934404023592075         -0.2209415381826476      4.749232247646712E-8
0.09725799567993704       5                        5.2635019826736776E-5
0.18706786716800028       5                        3.3318986477151534E-5
0.1341775722796173        5.076781767364179        4.286928571878182E-5
0.18706786716800028       5                        3.3318986477151534E-5
0.27                      5                        0
0.20588771972661823       5.079897859618956        2.482630954418988E-5
-2                        6.39268834244954         1.1788747111066664E-4