% Model:                CdZnTE_280211_2D_SE_WP_Cathode.mph
% Version:              COMSOL 4.1.0.88
% Date:                 Jul 11 2011, 14:21
% Dimension:            2
% Nodes:                56934
% Expressions:          1
% Description:          Electric potential
% x                       y                        V (V)
-2                        -1.8645293522661046      0.0013589100410783378
-2                        -2.1                     0.0013505916662762663
-1.846364360343395        -1.9401710821195468      0.0013508719590429655
-2                        -2.1                     0.0013505916662762663
-1.764796222180569        -2.1                     0.0013423177425122832
-1.846364360343395        -1.9401710821195468      0.0013508719590429655
-2                        -1.6286088480525398      0.0013840881411002475
-2                        -1.8645293522661046      0.0013589100410783378
-1.8245167365948494       -1.7449367782940313      0.0013648369315904828
-2                        -1.3926883424495373      0.0014265749323786108
-2                        -1.6286088480525398      0.0013840881411002475
-1.8168623695316584       -1.512189523512412       0.0013975517542216497
-1.764796222180569        -2.1                     0.0013423177425122832
-1.529392217779427        -2.1                     0.0013176375139814442
-1.6425247983867886       -1.8914043628477542      0.0013379006481343606
-2                        -1.1567678368465348      0.0014870333703955571
-2                        -1.3926883424495373      0.0014265749323786108
-1.8122455777218598       -1.2767049080338484      0.001448198812991895
-1.529392217779427        -2.1                     0.0013176375139814442
-1.2939882132423535       -2.1                     0.0012770645278990665
-1.3989614082807784       -1.9110406672624995      0.0013020614569532322
-2                        -0.920847331243532       0.001566195925961818
-2                        -1.1567678368465348      0.0014870333703955571
-1.8109836351205506       -1.0405681798744235      0.0015175246712154054
-1.2939882132423535       -2.1                     0.0012770645278990665
-1.05858420870528         -2.1                     0.0012215373381996005
-1.1696308739542287       -1.909293466203794       0.0012542220085867677
-2                        -0.6849268256405294      0.0016646517289425947
-2                        -0.920847331243532       0.001566195925961818
-1.810295659913922        -0.8045304929098868      0.0016059901874461843
-1.05858420870528         -2.1                     0.0012215373381996005
-0.8231802041682066       -2.1                     0.0011524950162245511
-0.9374566002124125       -1.908700173002049       0.0011917587656227382
-2                        -0.4490063200375265      0.0017825696766876878
-2                        -0.6849268256405294      0.0016646517289425947
-1.8097491300494364       -0.5683692088677957      0.0017141777780705892
-0.8231802041682066       -2.1                     0.0011524950162245511
-0.587776199631133        -2.1                     0.0010719635898431517
-0.702442025043489        -1.9095207699513645      0.0011158436280580292
-2                        -0.21308581443452423     0.0019193899315614537
-2                        -0.4490063200375265      0.0017825696766876878
-1.8097640917460813       -0.3318487261805915      0.0018422348306593713
-0.587776199631133        -2.1                     0.0010719635898431517
-0.3523721950940597       -2.1                     9.825844308844391E-4
-0.4672480472817225       -1.9100923020549863      0.001029506014275362
-2                        0.02283469116847825      0.0020735454109844713
-2                        -0.21308581443452423     0.0019193899315614537
-1.8105412062410897       -0.0958658833976639      0.001988706297605759
-0.3523721950940597       -2.1                     9.825844308844391E-4
-0.11696819055698615      -2.1                     8.875368186893201E-4
-0.23252005099952355      -1.9100649405128722      9.359646438589243E-4
-2                        0.2587551967714812       0.0022422924235648003
-2                        0.02283469116847825      0.0020735454109844713
-1.8110785387248838       0.14021195088646163      0.002151749001869493
-0.11696819055698615      -2.1                     8.875368186893201E-4
0.11843581398008718       -2.1                     7.903208855376327E-4
0.0028064179962684482     -1.9097863682838865      8.382315302137511E-4
0.3639115504057773        -0.1                     0
0.27                      -0.1                     0
0.3155232914343534        -0.1891591978532564      2.2212279816833928E-4
0.18706786716800006       0                        5.244174872354161E-4
0.09725799567993655       0                        8.181228875329281E-4
0.136474273000267         -0.06484323953093968     6.181462264253623E-4
0.09725799567993655       0                        8.181228875329281E-4
0                         0                        0.0010425743271509672
0.04825893493545653       -0.083540921452322       8.426590011818707E-4
-2                        0.49467570237448366      0.002421712666262134
-2                        0.2587551967714812       0.0022422924235648003
-1.8108872450663813       0.37611999723855494      0.002327785403757496
0.11843581398008718       -2.1                     7.903208855376327E-4
0.3538398185171605        -2.1                     6.944149548777739E-4
0.23790455401201951       -1.9095195768809718      7.402876316765488E-4
0.4676574669449062        -0.1                     0
0.3639115504057773        -0.1                     0
0.41484073698070734       -0.19607074930896257     1.506514728582642E-4
0.27                      -0.1                     0
0.27                      0                        0
0.2093597961748373        -0.058752783995909975    3.3996391782096136E-4
0.27                      0                        0
0.18706786716800006       0                        5.244174872354161E-4
0.2093597961748373        -0.058752783995909975    3.3996391782096136E-4
0                         0                        0.0010425743271509672
0                         0.10390640015745226      0.0012127939827777858
-0.09240933680645019      0.05644175854491199      0.001282642203594502
-2                        0.7305962079774864       0.002606903566316161
-2                        0.49467570237448366      0.002421712666262134
-1.8102978591166694       0.6121077323603339       0.0025124974665967246
0.3538398185171605        -2.1                     6.944149548777739E-4
0.5892438230542343        -2.1                     6.028879581559928E-4
0.47351012803695564       -1.9096142074834344      6.452775340825325E-4
0.5822677116210757        -0.1                     0
0.4676574669449062        -0.1                     0
0.5254387392722403        -0.19828333020975616     1.1074516132602937E-4
0                         0.10390640015745226      0.0012127939827777858
0                         0.21464725366904303      0.001436922744819822
-0.09413192195342449      0.162719619652995        0.0014561752410151016
-2                        0.9665167135804887       0.0027923143447446896
-2                        0.7305962079774864       0.002606903566316161
-1.809636460660011        0.8481252817224755       0.002700468397920414
0.5892438230542343        -2.1                     6.028879581559928E-4
0.8246478275913076        -2.1                     5.180854083604858E-4
0.7092119849183914        -1.9101441564387935      5.562091587387193E-4
0.7088801016846716        -0.1                     0
0.5822677116210757        -0.1                     0
0.6463164295287661        -0.20419523662202613     8.985374865413894E-5
0                         0.21464725366904303      0.001436922744819822
0                         0.33402136525582626      0.0017013649473375276
-0.10238192627319108      0.2773266173600838       0.0016761223470557747
-2                        1.2024372191834916       0.002972154029037758
-2                        0.9665167135804887       0.0027923143447446896
-1.8093966065345832       1.0848785704694899       0.0028863668975169575
0.8246478275913076        -2.1                     5.180854083604858E-4
1.060051832128381         -2.1                     4.414814924845694E-4
0.944810122475995         -1.9110638723910947      4.7508944266110774E-4
0.8462977796009774        -0.1                     0
0.7088801016846716        -0.1                     0
0.7768427587250946        -0.20990692940404454     7.537457497655161E-5
0.9855914897201027        -0.1                     0
0.8462977796009774        -0.1                     0
0.913331841434306         -0.21558011435769117     6.484320956880719E-5
0                         0.33402136525582626      0.0017013649473375276
0                         0.4654409456151904       0.002000400428682605
-0.11195765141043862      0.40324858292617355      0.0019302964294570014
-2                        1.4383577247864943       0.0031407969972758864
-2                        1.2024372191834916       0.002972154029037758
-1.8102250904199269       1.3218538434612288       0.0030637681016080194
1.060051832128381         -2.1                     4.414814924845694E-4
1.295455836665455         -2.1                     3.7371399387087163E-4
1.1802724333881178        -1.9121585231134839      4.029028295164956E-4
1.125026545438824         -0.1                     0
0.9855914897201027        -0.1                     0
1.0526738918134877        -0.21908653224120095     5.5866300483276475E-5
0                         0.4654409456151904       0.002000400428682605
0                         0.610624405923613        0.002328500176191973
-0.12289197340930254      0.5418004846451476       0.002212094495681092
-2                        1.6742782303894965       0.003293136511581902
-2                        1.4383577247864943       0.0031407969972758864
-1.8117366697933595       1.5575821788674828       0.003226072753616124
1.295455836665455         -2.1                     3.7371399387087163E-4
1.530859841202528         -2.1                     3.1474762926914947E-4
1.415644348200134         -1.9131497033115414      3.398095992871906E-4
1.2644616011575456        -0.1                     0
1.125026545438824         -0.1                     0
1.192874707343497         -0.22084913007607143     4.8207311408296815E-5
1.4038966568762674        -0.1                     0
1.2644616011575456        -0.1                     0
1.332907164897741         -0.22178949665731593     4.183888174357982E-5
0                         0.610624405923613        0.002328500176191973
0                         0.7710264798716884       0.0026807467476000738
-0.13536872088927018      0.6951252260151842       0.0025171412800225816
-2                        1.910198735992499        0.0034248650605908457
-2                        1.6742782303894965       0.003293136511581902
-1.8133091131503543       1.7928042318094808       0.003369186659339106
1.530859841202528         -2.1                     3.1474762926914947E-4
1.7662638457396016        -2.1                     2.6408611890416887E-4
1.6509678419102916        -1.913947536518745       2.854180352924941E-4
1.5433317125949886        -0.1                     0
1.4038966568762674        -0.1                     0
1.4728399671468908        -0.22170163536203236     3.6338431274764074E-5
1.6827667683137104        -0.1                     0
1.5433317125949886        -0.1                     0
1.6126369874543267        -0.22130472154584246     3.169801681856463E-5
0                         0.7710264798716884       0.0026807467476000738
0                         0.9482303952029425       0.0030516593113957486
-0.14885945969644046      0.8648426735342333       0.002839574493919437
-2                        2.146119241595502        0.003532684887222781
-2                        1.910198735992499        0.0034248650605908457
-1.8142915345256305       2.0277163781428866       0.003489558865965609
1.7662638457396016        -2.1                     2.6408611890416887E-4
2.001667850276675         -2.1                     2.209697843051505E-4
1.8862179694928296        -1.9145872085847693      2.3901950161406372E-4
1.8222018240324316        -0.1                     0
1.6827667683137104        -0.1                     0
1.7524205024856452        -0.22053470949905415     2.7706196732633495E-5
0                         0.9482303952029425       0.0030516593113957486
0                         1.1439937446136246       0.0034336916114919317
-0.16192274258080808      1.0514843059799799       0.0031710368727815535
-2                        2.382039747198504        0.003614458800605938
-2                        2.146119241595502        0.003532684887222781
-1.8145440777929016       2.2632242380517997       0.0035849021290064874
2.001667850276675         -2.1                     2.209697843051505E-4
2.2370718548137485        -2.1                     1.8452770648463612E-4
2.1212403142882224        -1.9149067733046004      1.997584701392627E-4
1.9616368797511532        -0.1                     0
1.8222018240324316        -0.1                     0
1.8921889778912155        -0.21910083407876818     2.4177211156241352E-5
0                         1.1439937446136246       0.0034336916114919317
0                         1.3588800130833947       0.003813488806950041
-0.1732581259874024       1.2542482820910217       0.0035003415274907222
-2                        2.617960252801507        0.003669313109828116
-2                        2.382039747198504        0.003614458800605938
-1.8145535266948256       2.4988131618576177       0.003653333602697542
2.2370718548137485        -2.1                     1.8452770648463612E-4
2.4724758593508214        -2.1                     1.538794699255798E-4
2.3561757520121613        -1.9147880629664602      1.6669310136821928E-4
2.101071935469875         -0.1                     0
1.9616368797511532        -0.1                     0
2.0316898183392325        -0.21925732829813563     2.1448609341017875E-5
0                         1.3588800130833947       0.003813488806950041
0                         1.5858597535302605       0.004163125873553123
-0.1795084219252066       1.473580209319907        0.003819388978091732
0                         1.5858597535302605       0.004163125873553123
0                         1.8143948151476934       0.00445529871748449
-0.18186824464524037      1.6998398195295814       0.004103264367816656
-2                        2.853880758404509        0.0036976990587366835
-2                        2.617960252801507        0.003669313109828116
-1.8145862475632197       2.734488951757493        0.0036945695312187183
2.4724758593508214        -2.1                     1.538794699255798E-4
2.707879863887895         -2.1                     1.2819481610928292E-4
2.5899536735415256        -1.9134352851616074      1.3905611954343977E-4
2.2405069911885964        -0.1                     0
2.101071935469875         -0.1                     0
2.170954403518864         -0.21946306339801872     1.9084713569268814E-5
2.379942046907318         -0.1                     0
2.2405069911885964        -0.1                     0
2.309867120532118         -0.22014465275618314     1.7085326943991255E-5
2.519377102626039         -0.1                     0
2.379942046907318         -0.1                     0
2.4488005906732924        -0.2209684430572204      1.5334987446048542E-5
2.658812158344761         -0.1                     0
2.519377102626039         -0.1                     0
2.5880989398843437        -0.22170854871881326     1.3765788438092755E-5
2.7982472140634824        -0.1                     0
2.658812158344761         -0.1                     0
2.7277088914998533        -0.22229159769563386     1.234925992687818E-5
2.937682269782204         -0.1                     0
2.7982472140634824        -0.1                     0
2.8673465975262697        -0.22265964559435705     1.1066887366750284E-5
0                         1.8143948151476934       0.00445529871748449
0                         2.0429298767651267       0.004681803133329
-0.18216771003371712      1.9273041279334155       0.004336209893937473
0                         2.0429298767651267       0.004681803133329
0                         2.2714649383825596       0.00483808458697864
-0.18229260576086537      2.1562463098664746       0.004511029279003595
-2                        3.0898012640075114       0.003701413922470535
-2                        2.853880758404509        0.0036976990587366835
-1.8147035551189845       2.970305247884012        0.0037096905084570714
2.707879863887895         -2.1                     1.2819481610928292E-4
2.9432838684249694        -2.1                     1.0672343939679754E-4
2.825796342759402         -1.9132455382417968      1.1574205923569769E-4
3.077117325500925         -0.1                     0
2.937682269782204         -0.1                     0
3.006845660651237         -0.22280196545492512     9.906398868561896E-6
3.216552381219647         -0.1                     0
3.077117325500925         -0.1                     0
3.146241572668467         -0.2227424114060532      8.857969473205965E-6
0                         2.2714649383825596       0.00483808458697864
0                         2.499999999999993        0.004920796905776972
-0.1823419249881126       2.385524144460483        0.0046223749973163895
-2                        3.3257217696105137       0.003683574412250775
-2                        3.0898012640075114       0.003701413922470535
-1.8147743583868332       3.2062665836821345       0.0037011327675599693
2.9432838684249694        -2.1                     1.0672343939679754E-4
3.178687872962042         -2.1                     8.880543426730818E-5
3.0614391638272775        -1.912865551540289       9.629833147682569E-5
3.355987436938369         -0.1                     0
3.216552381219647         -0.1                     0
3.2856120273994947        -0.22253224234583127     7.913940900462666E-6
3.4954224926570903        -0.1                     0
3.355987436938369         -0.1                     0
3.425086090583705         -0.22232270811302624     7.072081981738437E-6
0                         2.499999999999993        0.004920796905776972
0                         2.7285350616174258       0.004927941402370467
-0.1822236976140133       2.614944241793911        0.004667742168345999
0                         2.7285350616174258       0.004927941402370467
0                         2.957070123234859        0.004858979091435984
-0.18182831952101428      2.844479394520134        0.004646236373275762
-2                        3.561642275213515        0.0036485270861287265
-2                        3.3257217696105137       0.003683574412250775
-1.814508241982538        3.4422189006433794       0.003672674234104589
3.178687872962042         -2.1                     8.880543426730818E-5
3.4140918774991156        -2.1                     7.387091422866406E-5
3.2970061712504695        -1.9127564014644418      8.009852998675357E-5
3.6348575483758117        -0.1                     0
3.4954224926570903        -0.1                     0
3.564745989017066         -0.22231573791816542     6.3308062904764E-6
3.774292604094533         -0.1                     0
3.6348575483758117        -0.1                     0
3.704437425395104         -0.22251683930070898     5.677806586506428E-6
0                         2.957070123234859        0.004858979091435984
0                         3.185605184852292        0.004714910122174579
-0.18103431719503904      3.0739776433646573       0.004558532136548796
-2                        3.797562780816517        0.0036016727878983375
-2                        3.561642275213515        0.0036485270861287265
-1.8134260535470643       3.6778830759728005       0.003629336927499159
3.4140918774991156        -2.1                     7.387091422866406E-5
3.6494958820361894        -2.1                     6.143363512177313E-5
3.5325985356809597        -1.9130223104015338      6.660839482473056E-5
3.913727659813255         -0.1                     0
3.774292604094533         -0.1                     0
3.844001964580865         -0.2227039137934069      5.0928746007970505E-6
4.053162715531976         -0.1                     0
3.913727659813255         -0.1                     0
3.983533451182107         -0.22272860799811336     4.562862176536599E-6
0                         3.185605184852292        0.004714910122174579
0                         3.4141402464697252       0.004498315837192897
-0.17941097912602774      3.302977961818844        0.004407534562428167
0                         3.4141402464697252       0.004498315837192897
0                         3.641119986916597        0.004215513161312334
-0.17613686177319635      3.5289963861416385       0.004200349275749429
0                         3.641119986916597        0.004215513161312334
0                         3.8560062553863665       0.0038907172271408757
-0.1690979428154845       3.7473075363988624       0.003950611469508248
0                         3.8560062553863665       0.0038907172271408757
0                         4.051769604797049        0.0035517648829962614
-0.15879845081525432      3.951390900587333        0.003675802349450488
-2                        4.0334832864195205       0.0035491755620606197
-2                        3.797562780816517        0.0036016727878983375
-1.812388910890345        3.9139707177051837       0.0035768491455942324
3.6494958820361894        -2.1                     6.143363512177313E-5
3.8848998865732622        -2.1                     5.108211640632118E-5
3.768076711339408         -1.9134476851189879      5.538639983850937E-5
4.192597771250697         -0.1                     0
4.053162715531976         -0.1                     0
4.123173315966267         -0.22265607970849863     4.084838913475554E-6
4.332032826969419         -0.1                     0
4.192597771250697         -0.1                     0
4.262887984957112         -0.2225697145639814      3.6565617675785855E-6
0                         4.051769604797049        0.0035517648829962614
0                         4.228973520128305        0.003214552285660136
-0.14640986302166575      4.137549911688174        0.003392762385718902
-2                        4.269403792022521        0.0034975339525143818
-2                        4.0334832864195205       0.0035491755620606197
-1.8112369623242779       4.150177172422889        0.003521809984634867
3.8848998865732622        -2.1                     5.108211640632118E-5
4.120303891110336         -2.1                     4.247009009268877E-5
4.003253548477235         -1.9137409163502896      4.6059599452462665E-5
4.471467882688141         -0.1                     0
4.332032826969419         -0.1                     0
4.402591687730564         -0.22245830723910032     3.2727566027154465E-6
4.610902938406863         -0.1                     0
4.471467882688141         -0.1                     0
4.542291634883714         -0.22231805150883424     2.9287042253135373E-6
0                         4.228973520128305        0.003214552285660136
0                         4.389375594076383        0.002889520603345485
-0.13478616034299182      4.306646857114516        0.0031126043671571217
-2                        4.505324297625524        0.003453008272881331
-2                        4.269403792022521        0.0034975339525143818
-1.8108990640579306       4.3863985952651126       0.0034709566313377003
4.120303891110336         -2.1                     4.247009009268877E-5
4.35570789564741          -2.1                     3.530727314580584E-5
4.238223236357064         -1.9136704712417378      3.830478397925858E-5
4.750337994125584         -0.1                     0
4.610902938406863         -0.1                     0
4.681973398034401         -0.222155867764129       2.6204961357985054E-6
0                         4.389375594076383        0.002889520603345485
0                         4.534559054384806        0.002585055375565907
-0.12390885147414508      4.460050095550938        0.002845321142020187
0                         4.534559054384806        0.002585055375565907
0                         4.665978634744171        0.0023098613497569446
-0.11431750405086824      4.598908349427916        0.002601030462243935
-2                        4.7412448032285255       0.0034209439208043764
-2                        4.505324297625524        0.003453008272881331
-1.810825790900088        4.622746456789798        0.0034304454856532722
4.8897730498443055        -0.1                     0
4.750337994125584         -0.1                     0
4.82158565554097          -0.22194589576647897     2.344011295530985E-6
4.35570789564741          -2.1                     3.530727314580584E-5
4.591111900184483         -2.1                     2.9350955131760557E-5
4.473364488870661         -1.913217936025103       3.1848063949199855E-5
5.029208105563027         -0.1                     0
4.8897730498443055        -0.1                     0
4.961178047977154         -0.2217109037287116      2.0963514247702633E-6
0                         4.665978634744171        0.0023098613497569446
0                         4.785352746330957        0.002074724816047957
-0.10616172329562268      4.724920711233303        0.0023897791706427034
-2                        4.977165308831528        0.0034050875368878838
-2                        4.7412448032285255       0.0034209439208043764
-1.810934242614844        4.8591477658263225       0.003405178455102036
4.591111900184483         -2.1                     2.9350955131760557E-5
4.826515904721557         -2.1                     2.4398580705925795E-5
4.70881662155852          -1.9126859944033898      2.647192870894153E-5
5.168643161281748         -0.1                     0
5.029208105563027         -0.1                     0
5.100788308544586         -0.22157220136551412     1.8763489461462015E-6
0                         4.785352746330957        0.002074724816047957
0                         4.896093599842548        0.0018955494081920534
-0.09875504944445097      4.840263815955695        0.002221537814454006
-2                        5.21308581443453         0.0034070456344759536
-2                        4.977165308831528        0.0034050875368878838
-1.8109653461710749       5.095612306736077        0.0033980407395252377
-2                        5.449006320037531        0.0034260389004118264
-2                        5.21308581443453         0.0034070456344759536
-1.8104698060615043       5.332418170827913        0.0034094867679329505
4.826515904721557         -2.1                     2.4398580705925795E-5
5.061919909258631         -2.1                     2.028132523668857E-5
4.944317778872884         -1.912532314174615       2.200283379705023E-5
5.308078217000469         -0.1                     0
5.168643161281748         -0.1                     0
5.2402854346454175        -0.22163605167058242     1.6824056409834697E-6
0                         4.896093599842548        0.0018955494081920534
0                         5                        0.0018005115169825803
-0.09752139268225549      4.944990626336669        0.002124809006930264
-2                        5.6849268256405345       0.003459041151936981
-2                        5.449006320037531        0.0034260389004118264
-1.8095149671305624       5.569514327014867        0.003437520595652336
5.447513272719191         -0.1                     0
5.308078217000469         -0.1                     0
5.379471834422474         -0.2218116247760093      1.5102799669473673E-6
5.061919909258631         -2.1                     2.028132523668857E-5
5.297323913795703         -2.1                     1.6858590489525864E-5
5.179835162781797         -1.9126174191717071      1.828817721129739E-5
5.586948328437913         -0.1                     0
5.447513272719191         -0.1                     0
5.518295822878883         -0.22178694500657162     1.3539437770096417E-6
5.726383384156634         -0.1                     0
5.586948328437913         -0.1                     0
5.65697084260933          -0.22167894489010276     1.2131164537498399E-6
0                         5                        0.0018005115169825803
0.09725799567993704       5                        0.0014011574880357562
0.04549028241684818       5.084242024656803        0.0016290201543947233
-2                        5.920847331243536        0.0035012798615754333
-2                        5.6849268256405345       0.003459041151936981
-1.8068187192012128       5.80682498208139         0.0034779140127789406
-2                        6.156767836846538        0.003546968295484578
-2                        5.920847331243536        0.0035012798615754333
-1.8026107942666219       6.047812453281348        0.0035257651130439016
5.297323913795703         -2.1                     1.6858590489525864E-5
5.532727918332776         -2.1                     1.401335421666129E-5
5.415313699135471         -1.9127954095606348      1.5201111855832306E-5
5.865818439875356         -0.1                     0
5.726383384156634         -0.1                     0
5.795592355771693         -0.22128094252934744     1.0844060502678569E-6
6.0052534955940775        -0.1                     0
5.865818439875356         -0.1                     0
5.934404023592075         -0.2209415381826476      9.696720201942113E-7
0.09725799567993704       5                        0.0014011574880357562
0.18706786716800028       5                        8.779949686264763E-4
0.1341775722796173        5.076781767364179        0.0011945236492929565
0.18706786716800028       5                        8.779949686264763E-4
0.27                      5                        0
0.20588771972661823       5.079897859618956        7.000621656741102E-4
-2                        6.39268834244954         0.003590130335268576