% Model:                CdZnTE_280211_2D_SE_WP_Cathode.mph
% Version:              COMSOL 4.1.0.88
% Date:                 Jul 11 2011, 14:30
% Dimension:            2
% Nodes:                56934
% Expressions:          1
% Description:          Electric potential
% x                       y                        V (V)
-2                        -1.8645293522661046      2.9681053523564557E-4
-2                        -2.1                     2.950005545345805E-4
-1.846364360343395        -1.9401710821195468      2.950615989033898E-4
-2                        -2.1                     2.950005545345805E-4
-1.764796222180569        -2.1                     2.932001156092866E-4
-1.846364360343395        -1.9401710821195468      2.950615989033898E-4
-2                        -1.6286088480525398      3.022881388793852E-4
-2                        -1.8645293522661046      2.9681053523564557E-4
-1.8245167365948494       -1.7449367782940313      2.98100419261631E-4
-2                        -1.3926883424495373      3.1152836059536405E-4
-2                        -1.6286088480525398      3.022881388793852E-4
-1.8168623695316584       -1.512189523512412       3.052177949923999E-4
-1.764796222180569        -2.1                     2.932001156092866E-4
-1.529392217779427        -2.1                     2.8782878513875795E-4
-1.6425247983867886       -1.8914043628477542      2.9223935574195745E-4
-2                        -1.1567678368465348      3.246704294632767E-4
-2                        -1.3926883424495373      3.1152836059536405E-4
-1.8122455777218598       -1.2767049080338484      3.162322601413781E-4
-1.529392217779427        -2.1                     2.8782878513875795E-4
-1.2939882132423535       -2.1                     2.7899609809518963E-4
-1.3989614082807784       -1.9110406672624995      2.84439312001389E-4
-2                        -0.920847331243532       3.418656019815322E-4
-2                        -1.1567678368465348      3.246704294632767E-4
-1.8109836351205506       -1.0405681798744235      3.313000037026316E-4
-1.2939882132423535       -2.1                     2.7899609809518963E-4
-1.05858420870528         -2.1                     2.669030292719498E-4
-1.1696308739542287       -1.909293466203794       2.740238227903769E-4
-2                        -0.6849268256405294      3.63229786183807E-4
-2                        -0.920847331243532       3.418656019815322E-4
-1.810295659913922        -0.8045304929098868      3.505117057796361E-4
-1.05858420870528         -2.1                     2.669030292719498E-4
-0.8231802041682066       -2.1                     2.5185915213823414E-4
-0.9374566002124125       -1.908700173002049       2.6041811413957203E-4
-2                        -0.4490063200375265      3.887820671028473E-4
-2                        -0.6849268256405294      3.63229786183807E-4
-1.8097491300494364       -0.5683692088677957      3.7397968189497015E-4
-0.8231802041682066       -2.1                     2.5185915213823414E-4
-0.587776199631133        -2.1                     2.3430226216659744E-4
-0.702442025043489        -1.9095207699513645      2.4387321662720096E-4
-2                        -0.21308581443452423     4.183764285227364E-4
-2                        -0.4490063200375265      3.887820671028473E-4
-1.8097640917460813       -0.3318487261805915      4.017151618029643E-4
-0.587776199631133        -2.1                     2.3430226216659744E-4
-0.3523721950940597       -2.1                     2.1480537967638271E-4
-0.4672480472817225       -1.9100923020549863      2.2504575024969936E-4
-2                        0.02283469116847825      4.516404382055292E-4
-2                        -0.21308581443452423     4.183764285227364E-4
-1.8105412062410897       -0.0958658833976639      4.333741492698335E-4
-0.3523721950940597       -2.1                     2.1480537967638271E-4
-0.11696819055698615      -2.1                     1.9406048885594126E-4
-0.23252005099952355      -1.9100649405128722      2.0463533906548692E-4
-2                        0.2587551967714812       4.8793852694731303E-4
-2                        0.02283469116847825      4.516404382055292E-4
-1.8110785387248838       0.14021195088646163      4.685201285557116E-4
-0.11696819055698615      -2.1                     1.9406048885594126E-4
0.11843581398008718       -2.1                     1.728314410372601E-4
0.0028064179962684482     -1.9097863682838865      1.832983912553681E-4
0.3639115504057773        -0.1                     0
0.27                      -0.1                     0
0.3155232914343534        -0.1891591978532564      4.878065359966481E-5
0.18706786716800006       0                        1.1587643432169346E-4
0.09725799567993655       0                        1.8050562801428445E-4
0.136474273000267         -0.06484323953093968     1.3624405250489043E-4
0.09725799567993655       0                        1.8050562801428445E-4
0                         0                        2.2972726327279605E-4
0.04825893493545653       -0.083540921452322       1.8552560307934178E-4
-2                        0.49467570237448366      5.263736636778506E-4
-2                        0.2587551967714812       4.8793852694731303E-4
-1.8108872450663813       0.37611999723855494      5.063331629401803E-4
0.11843581398008718       -2.1                     1.728314410372601E-4
0.3538398185171605        -2.1                     1.518789778498597E-4
0.23790455401201951       -1.9095195768809718      1.619047128802786E-4
0.4676574669449062        -0.1                     0
0.3639115504057773        -0.1                     0
0.41484073698070734       -0.19607074930896257     3.305424953690625E-5
0.27                      -0.1                     0
0.27                      0                        0
0.2093597961748373        -0.058752783995909975    7.498370037432015E-5
0.27                      0                        0
0.18706786716800006       0                        1.1587643432169346E-4
0.2093597961748373        -0.058752783995909975    7.498370037432015E-5
0                         0                        2.2972726327279605E-4
0                         0.10390640015745226      2.6762302776015006E-4
-0.09240933680645019      0.05644175854491199      2.824851785193981E-4
-2                        0.7305962079774864       5.658311184895382E-4
-2                        0.49467570237448366      5.263736636778506E-4
-1.8102978591166694       0.6121077323603339       5.458258280650237E-4
0.3538398185171605        -2.1                     1.518789778498597E-4
0.5892438230542343        -2.1                     1.3187555511330536E-4
0.47351012803695564       -1.9096142074834344      1.4114299934712596E-4
0.5822677116210757        -0.1                     0
0.4676574669449062        -0.1                     0
0.5254387392722403        -0.19828333020975616     2.4282462098101753E-5
0                         0.10390640015745226      2.6762302776015006E-4
0                         0.21464725366904303      3.1748399501747696E-4
-0.09413192195342449      0.162719619652995        3.210340788860087E-4
-2                        0.9665167135804887       6.050546641014287E-4
-2                        0.7305962079774864       5.658311184895382E-4
-1.809636460660011        0.8481252817224755       5.857696107639793E-4
0.5892438230542343        -2.1                     1.3187555511330536E-4
0.8246478275913076        -2.1                     1.1333606552503284E-4
0.7092119849183914        -1.9101441564387935      1.2167292173717339E-4
0.7088801016846716        -0.1                     0
0.5822677116210757        -0.1                     0
0.6463164295287661        -0.20419523662202613     1.969200304797012E-5
0                         0.21464725366904303      3.1748399501747696E-4
0                         0.33402136525582626      3.762817825909872E-4
-0.10238192627319108      0.2773266173600838       3.6980831874332753E-4
-2                        1.2024372191834916       6.427385924986072E-4
-2                        0.9665167135804887       6.050546641014287E-4
-1.8093966065345832       1.0848785704694899       6.249509839724974E-4
0.8246478275913076        -2.1                     1.1333606552503284E-4
1.060051832128381         -2.1                     9.65849319749249E-5
0.944810122475995         -1.9110638723910947      1.039355976358714E-4
0.8462977796009774        -0.1                     0
0.7088801016846716        -0.1                     0
0.7768427587250946        -0.20990692940404454     1.651267264172952E-5
0.9855914897201027        -0.1                     0
0.8462977796009774        -0.1                     0
0.913331841434306         -0.21558011435769117     1.4201569571357179E-5
0                         0.33402136525582626      3.762817825909872E-4
0                         0.4654409456151904       4.427120937345243E-4
-0.11195765141043862      0.40324858292617355      4.26104643541222E-4
-2                        1.4383577247864943       6.776187470300411E-4
-2                        1.2024372191834916       6.427385924986072E-4
-1.8102250904199269       1.3218538434612288       6.619273433041723E-4
1.060051832128381         -2.1                     9.65849319749249E-5
1.295455836665455         -2.1                     8.176337823012014E-5
1.1802724333881178        -1.9121585231134839      8.814833029594325E-5
1.125026545438824         -0.1                     0
0.9855914897201027        -0.1                     0
1.0526738918134877        -0.21908653224120095     1.223296612753115E-5
0                         0.4654409456151904       4.427120937345243E-4
0                         0.610624405923613        5.154823218770536E-4
-0.12289197340930254      0.5418004846451476       4.88403920866157E-4
-2                        1.6742782303894965       7.085513127420832E-4
-2                        1.4383577247864943       6.776187470300411E-4
-1.8117366697933595       1.5575821788674828       6.952382898531244E-4
1.295455836665455         -2.1                     8.176337823012014E-5
1.530859841202528         -2.1                     6.886500130275594E-5
1.415644348200134         -1.9131497033115414      7.434772192158262E-5
1.2644616011575456        -0.1                     0
1.125026545438824         -0.1                     0
1.192874707343497         -0.22084913007607143     1.055424574442335E-5
1.4038966568762674        -0.1                     0
1.2644616011575456        -0.1                     0
1.332907164897741         -0.22178949665731593     9.158895139629977E-6
0                         0.610624405923613        5.154823218770536E-4
0                         0.7710264798716884       5.934026189973028E-4
-0.13536872088927018      0.6951252260151842       5.556535610393023E-4
-2                        1.910198735992499        7.345744696978054E-4
-2                        1.6742782303894965       7.085513127420832E-4
-1.8133091131503543       1.7928042318094808       7.239634225542258E-4
1.530859841202528         -2.1                     6.886500130275594E-5
1.7662638457396016        -2.1                     5.77821578338112E-5
1.6509678419102916        -1.913947536518745       6.244917054086352E-5
1.5433317125949886        -0.1                     0
1.4038966568762674        -0.1                     0
1.4728399671468908        -0.22170163536203236     7.954076910006482E-6
1.6827667683137104        -0.1                     0
1.5433317125949886        -0.1                     0
1.6126369874543267        -0.22130472154584246     6.937853484695017E-6
0                         0.7710264798716884       5.934026189973028E-4
0                         0.9482303952029425       6.751210064510752E-4
-0.14885945969644046      0.8648426735342333       6.264506662307468E-4
-2                        2.146119241595502        7.549535958409139E-4
-2                        1.910198735992499        7.345744696978054E-4
-1.8142915345256305       2.0277163781428866       7.473112841182929E-4
1.7662638457396016        -2.1                     5.77821578338112E-5
2.001667850276675         -2.1                     4.834926050825085E-5
1.8862179694928296        -1.9145872085847693      5.229836965153491E-5
1.8222018240324316        -0.1                     0
1.6827667683137104        -0.1                     0
1.7524205024856452        -0.22053470949905415     6.063816471288528E-6
0                         0.9482303952029425       6.751210064510752E-4
0                         1.1439937446136246       7.587872188891313E-4
-0.16192274258080808      1.0514843059799799       6.988310715471477E-4
-2                        2.382039747198504        7.692123146262314E-4
-2                        2.146119241595502        7.549535958409139E-4
-1.8145440777929016       2.2632242380517997       7.647596937082074E-4
2.001667850276675         -2.1                     4.834926050825085E-5
2.2370718548137485        -2.1                     4.037615280118248E-5
2.1212403142882224        -1.9149067733046004      4.370860460420469E-5
1.9616368797511532        -0.1                     0
1.8222018240324316        -0.1                     0
1.8921889778912155        -0.21910083407876818     5.291229357380803E-6
0                         1.1439937446136246       7.587872188891313E-4
0                         1.3588800130833947       8.412393050697795E-4
-0.1732581259874024       1.2542482820910217       7.702016542128898E-4
-2                        2.617960252801507        7.771522079172805E-4
-2                        2.382039747198504        7.692123146262314E-4
-1.8145535266948256       2.4988131618576177       7.758951030490167E-4
2.2370718548137485        -2.1                     4.037615280118248E-5
2.4724758593508214        -2.1                     3.367044455727713E-5
2.3561757520121613        -1.9147880629664602      3.6474092442134836E-5
2.101071935469875         -0.1                     0
1.9616368797511532        -0.1                     0
2.0316898183392325        -0.21925732829813563     4.6939101420844016E-6
0                         1.3588800130833947       8.412393050697795E-4
0                         1.5858597535302605       9.161832891160345E-4
-0.1795084219252066       1.473580209319907        8.386793376611103E-4
0                         1.5858597535302605       9.161832891160345E-4
0                         1.8143948151476934       9.776541153415973E-4
-0.18186824464524037      1.6998398195295814       8.987426182793587E-4
-2                        2.853880758404509        7.788629549180545E-4
-2                        2.617960252801507        7.771522079172805E-4
-1.8145862475632197       2.734488951757493        7.806478745981203E-4
2.4724758593508214        -2.1                     3.367044455727713E-5
2.707879863887895         -2.1                     2.8050620111097397E-5
2.5899536735415256        -1.9134352851616074      3.0427126251229542E-5
2.2405069911885964        -0.1                     0
2.101071935469875         -0.1                     0
2.170954403518864         -0.21946306339801872     4.1764730262605955E-6
2.379942046907318         -0.1                     0
2.2405069911885964        -0.1                     0
2.309867120532118         -0.22014465275618314     3.738851606766404E-6
2.519377102626039         -0.1                     0
2.379942046907318         -0.1                     0
2.4488005906732924        -0.2209684430572204      3.3557626535876732E-6
2.658812158344761         -0.1                     0
2.519377102626039         -0.1                     0
2.5880989398843437        -0.22170854871881326     3.012335715197372E-6
2.7982472140634824        -0.1                     0
2.658812158344761         -0.1                     0
2.7277088914998533        -0.22229159769563386     2.7023338182539646E-6
2.937682269782204         -0.1                     0
2.7982472140634824        -0.1                     0
2.8673465975262697        -0.22265964559435705     2.4217005990365374E-6
0                         1.8143948151476934       9.776541153415973E-4
0                         2.0429298767651267       0.0010239414122427298
-0.18216771003371712      1.9273041279334155       9.46962037922605E-4
0                         2.0429298767651267       0.0010239414122427298
0                         2.2714649383825596       0.0010541799806515167
-0.18229260576086537      2.1562463098664746       9.817942213677868E-4
-2                        3.0898012640075114       7.74723662596771E-4
-2                        2.853880758404509        7.788629549180545E-4
-1.8147035551189845       2.970305247884012        7.792425597109445E-4
2.707879863887895         -2.1                     2.8050620111097397E-5
2.9432838684249694        -2.1                     2.3352596056610237E-5
2.825796342759402         -1.9132455382417968      2.5325928649483787E-5
3.077117325500925         -0.1                     0
2.937682269782204         -0.1                     0
3.006845660651237         -0.22280196545492512     2.167747117222996E-6
3.216552381219647         -0.1                     0
3.077117325500925         -0.1                     0
3.146241572668467         -0.2227424114060532      1.9383208789552735E-6
0                         2.2714649383825596       0.0010541799806515167
0                         2.499999999999993        0.0010678122582658772
-0.1823419249881126       2.385524144460483        0.0010021942686337095
-2                        3.3257217696105137       7.653944500464508E-4
-2                        3.0898012640075114       7.74723662596771E-4
-1.8147743583868332       3.2062665836821345       7.72194469898637E-4
2.9432838684249694        -2.1                     2.3352596056610237E-5
3.178687872962042         -2.1                     1.943203189368369E-5
3.0614391638272775        -1.912865551540289       2.107153047212339E-5
3.355987436938369         -0.1                     0
3.216552381219647         -0.1                     0
3.2856120273994947        -0.22253224234583127     1.7317442547359248E-6
3.4954224926570903        -0.1                     0
3.355987436938369         -0.1                     0
3.425086090583705         -0.22232270811302624     1.547527728148877E-6
0                         2.499999999999993        0.0010678122582658772
0                         2.7285350616174258       0.001064604746070983
-0.1822236976140133       2.614944241793911        0.0010077632429320792
0                         2.7285350616174258       0.001064604746070983
0                         2.957070123234859        0.0010446562179509409
-0.18182831952101428      2.844479394520134        9.984680861123212E-4
-2                        3.561642275213515        7.517957987691347E-4
-2                        3.3257217696105137       7.653944500464508E-4
-1.814508241982538        3.4422189006433794       7.603075888772739E-4
3.178687872962042         -2.1                     1.943203189368369E-5
3.4140918774991156        -2.1                     1.6164262058783253E-5
3.2970061712504695        -1.9127564014644418      1.7526905187201E-5
3.6348575483758117        -0.1                     0
3.4954224926570903        -0.1                     0
3.564745989017066         -0.22231573791816542     1.3853232732216987E-6
3.774292604094533         -0.1                     0
3.6348575483758117        -0.1                     0
3.704437425395104         -0.22251683930070898     1.242437210684164E-6
0                         2.957070123234859        0.0010446562179509409
0                         3.185605184852292        0.001008397684078599
-0.18103431719503904      3.0739776433646573       9.746225683389742E-4
-2                        3.797562780816517        7.350716835743977E-4
-2                        3.561642275213515        7.517957987691347E-4
-1.8134260535470643       3.6778830759728005       7.446540072821537E-4
3.4140918774991156        -2.1                     1.6164262058783253E-5
3.6494958820361894        -2.1                     1.3442910008492371E-5
3.5325985356809597        -1.9130223104015338      1.4575173333690358E-5
3.913727659813255         -0.1                     0
3.774292604094533         -0.1                     0
3.844001964580865         -0.2227039137934069      1.1144471257322151E-6
4.053162715531976         -0.1                     0
3.913727659813255         -0.1                     0
3.983533451182107         -0.22272860799811336     9.984756371356986E-7
0                         3.185605184852292        0.001008397684078599
0                         3.4141402464697252       9.56584424204247E-4
-0.17941097912602774      3.302977961818844        9.37023246787404E-4
0                         3.4141402464697252       9.56584424204247E-4
0                         3.641119986916597        8.907769610158845E-4
-0.17613686177319635      3.5289963861416385       8.873976924810216E-4
0                         3.641119986916597        8.907769610158845E-4
0                         3.8560062553863665       8.165065874872486E-4
-0.1690979428154845       3.7473075363988624       8.289108224342192E-4
0                         3.8560062553863665       8.165065874872486E-4
0                         4.051769604797049        7.398906912957147E-4
-0.15879845081525432      3.951390900587333        7.655099700743431E-4
-2                        4.0334832864195205       7.165311570686606E-4
-2                        3.797562780816517        7.350716835743977E-4
-1.812388910890345        3.9139707177051837       7.264246863886278E-4
3.6494958820361894        -2.1                     1.3442910008492371E-5
3.8848998865732622        -2.1                     1.1177951073386282E-5
3.768076711339408         -1.9134476851189879      1.2119737700714848E-5
4.192597771250697         -0.1                     0
4.053162715531976         -0.1                     0
4.123173315966267         -0.22265607970849863     8.93881354275042E-7
4.332032826969419         -0.1                     0
4.192597771250697         -0.1                     0
4.262887984957112         -0.2225697145639814      8.001733804360337E-7
0                         4.051769604797049        7.398906912957147E-4
0                         4.228973520128305        6.642536867140395E-4
-0.14640986302166575      4.137549911688174        7.008783232483509E-4
-2                        4.269403792022521        6.975644845919997E-4
-2                        4.0334832864195205       7.165311570686606E-4
-1.8112369623242779       4.150177172422889        7.070292776584754E-4
3.8848998865732622        -2.1                     1.1177951073386282E-5
4.120303891110336         -2.1                     9.29362591724715E-6
4.003253548477235         -1.9137409163502896      1.0079002358969892E-5
4.471467882688141         -0.1                     0
4.332032826969419         -0.1                     0
4.402591687730564         -0.22245830723910032     7.161975873483708E-7
4.610902938406863         -0.1                     0
4.471467882688141         -0.1                     0
4.542291634883714         -0.22231805150883424     6.409213277314404E-7
0                         4.228973520128305        6.642536867140395E-4
0                         4.389375594076383        5.916960820236114E-4
-0.13478616034299182      4.306646857114516        6.372760320123481E-4
-2                        4.505324297625524        6.795326537140741E-4
-2                        4.269403792022521        6.975644845919997E-4
-1.8108990640579306       4.3863985952651126       6.879143774266765E-4
4.120303891110336         -2.1                     9.29362591724715E-6
4.35570789564741          -2.1                     7.726423426982713E-6
4.238223236357064         -1.9136704712417378      8.382251706852229E-6
4.750337994125584         -0.1                     0
4.610902938406863         -0.1                     0
4.681973398034401         -0.222155867764129       5.734893875616398E-7
0                         4.389375594076383        5.916960820236114E-4
0                         4.534559054384806        5.238578609072672E-4
-0.12390885147414508      4.460050095550938        5.7672106046692E-4
0                         4.534559054384806        5.238578609072672E-4
0                         4.665978634744171        4.6239449815684263E-4
-0.11431750405086824      4.598908349427916        5.211986738299049E-4
-2                        4.7412448032285255       6.63637787504837E-4
-2                        4.505324297625524        6.795326537140741E-4
-1.810825790900088        4.622746456789798        6.704266059214147E-4
4.8897730498443055        -0.1                     0
4.750337994125584         -0.1                     0
4.82158565554097          -0.22194589576647897     5.130000483985623E-7
4.35570789564741          -2.1                     7.726423426982713E-6
4.591111900184483         -2.1                     6.4232412031207634E-6
4.473364488870661         -1.913217936025103       6.96956106656078E-6
5.029208105563027         -0.1                     0
4.8897730498443055        -0.1                     0
4.961178047977154         -0.2217109037287116      4.588192139008076E-7
0                         4.665978634744171        4.6239449815684263E-4
0                         4.785352746330957        4.092999703255794E-4
-0.10616172329562268      4.724920711233303        4.726043041355623E-4
-2                        4.977165308831528        6.507923655863208E-4
-2                        4.7412448032285255       6.63637787504837E-4
-1.810934242614844        4.8591477658263225       6.556954932517175E-4
4.591111900184483         -2.1                     6.4232412031207634E-6
4.826515904721557         -2.1                     5.3397632884911655E-6
4.70881662155852          -1.9126859944033898      5.793341937195508E-6
5.168643161281748         -0.1                     0
5.029208105563027         -0.1                     0
5.100788308544586         -0.22157220136551412     4.1069161707654517E-7
0                         4.785352746330957        4.092999703255794E-4
0                         4.896093599842548        3.673793702053653E-4
-0.09875504944445097      4.840263815955695        4.32747393050104E-4
-2                        5.21308581443453         6.415149426283605E-4
-2                        4.977165308831528        6.507923655863208E-4
-1.8109653461710749       5.095612306736077        6.444780242326678E-4
-2                        5.449006320037531        6.358805896427232E-4
-2                        5.21308581443453         6.415149426283605E-4
-1.8104698060615043       5.332418170827913        6.370702191306073E-4
4.826515904721557         -2.1                     5.3397632884911655E-6
5.061919909258631         -2.1                     4.439054963886552E-6
4.944317778872884         -1.912532314174615       4.815626328420452E-6
5.308078217000469         -0.1                     0
5.168643161281748         -0.1                     0
5.2402854346454175        -0.22163605167058242     3.6826780266506414E-7
0                         4.896093599842548        3.673793702053653E-4
0                         5                        3.4180805541197474E-4
-0.09752139268225549      4.944990626336669        4.07037059860056E-4
-2                        5.6849268256405345       6.335422208543791E-4
-2                        5.449006320037531        6.358805896427232E-4
-1.8095149671305624       5.569514327014867        6.333263342419443E-4
5.447513272719191         -0.1                     0
5.308078217000469         -0.1                     0
5.379471834422474         -0.2218116247760093      3.3061974660305343E-7
5.061919909258631         -2.1                     4.439054963886552E-6
5.297323913795703         -2.1                     3.69035874124041E-6
5.179835162781797         -1.9126174191717071      4.003029543722347E-6
5.586948328437913         -0.1                     0
5.447513272719191         -0.1                     0
5.518295822878883         -0.22178694500657162     2.964281858754269E-7
5.726383384156634         -0.1                     0
5.586948328437913         -0.1                     0
5.65697084260933          -0.22167894489010276     2.656320220839827E-7
0                         5                        3.4180805541197474E-4
0.09725799567993704       5                        2.6650763417517616E-4
0.04549028241684818       5.084242024656803        3.0311343079104464E-4
-2                        5.920847331243536        6.338183122662915E-4
-2                        5.6849268256405345       6.335422208543791E-4
-1.8068187192012128       5.80682498208139         6.326763287923202E-4
-2                        6.156767836846538        6.358230072421781E-4
-2                        5.920847331243536        6.338183122662915E-4
-1.8026107942666219       6.047812453281348        6.343171904045263E-4
5.297323913795703         -2.1                     3.69035874124041E-6
5.532727918332776         -2.1                     3.0680771521518324E-6
5.415313699135471         -1.9127954095606348      3.3278034587844615E-6
5.865818439875356         -0.1                     0
5.726383384156634         -0.1                     0
5.795592355771693         -0.22128094252934744     2.3748888545208506E-7
6.0052534955940775        -0.1                     0
5.865818439875356         -0.1                     0
5.934404023592075         -0.2209415381826476      2.124064214757888E-7
0.09725799567993704       5                        2.6650763417517616E-4
0.18706786716800028       5                        1.6785684218272056E-4
0.1341775722796173        5.076781767364179        2.2195350566442526E-4
0.18706786716800028       5                        1.6785684218272056E-4
0.27                      5                        0
0.20588771972661823       5.079897859618956        1.2928960898917673E-4
-2                        6.39268834244954         6.38612330540886E-4
-2                        6.156767836846538        6.358230072421781E-4