% Model:                CdZnTE_280211_2D_SE_WP_Cathode.mph
% Version:              COMSOL 4.1.0.88
% Date:                 Jul 11 2011, 14:23
% Dimension:            2
% Nodes:                56934
% Expressions:          1
% Description:          Electric potential
% x                       y                        V (V)
-2                        -1.8645293522661046      6.354142108509674E-4
-2                        -2.1                     6.315335187651006E-4
-1.846364360343395        -1.9401710821195468      6.316643530782727E-4
-2                        -2.1                     6.315335187651006E-4
-1.764796222180569        -2.1                     6.276733963925775E-4
-1.846364360343395        -1.9401710821195468      6.316643530782727E-4
-2                        -1.6286088480525398      6.471592092946497E-4
-2                        -1.8645293522661046      6.354142108509674E-4
-1.8245167365948494       -1.7449367782940313      6.381795639611474E-4
-2                        -1.3926883424495373      6.669745000031025E-4
-2                        -1.6286088480525398      6.471592092946497E-4
-1.8168623695316584       -1.512189523512412       6.534404297507051E-4
-1.764796222180569        -2.1                     6.276733963925775E-4
-1.529392217779427        -2.1                     6.161580171472556E-4
-1.6425247983867886       -1.8914043628477542      6.256131793731355E-4
-2                        -1.1567678368465348      6.951629093278119E-4
-2                        -1.3926883424495373      6.669745000031025E-4
-1.8122455777218598       -1.2767049080338484      6.770609337389331E-4
-1.529392217779427        -2.1                     6.161580171472556E-4
-1.2939882132423535       -2.1                     5.972241202507937E-4
-1.3989614082807784       -1.9110406672624995      6.08891074363206E-4
-2                        -0.920847331243532       7.320557209805585E-4
-2                        -1.1567678368465348      6.951629093278119E-4
-1.8109836351205506       -1.0405681798744235      7.093813230377687E-4
-1.2939882132423535       -2.1                     5.972241202507937E-4
-1.05858420870528         -2.1                     5.713053823414491E-4
-1.1696308739542287       -1.909293466203794       5.865650296305249E-4
-2                        -0.6849268256405294      7.779120268019304E-4
-2                        -0.920847331243532       7.320557209805585E-4
-1.810295659913922        -0.8045304929098868      7.506042733835448E-4
-1.05858420870528         -2.1                     5.713053823414491E-4
-0.8231802041682066       -2.1                     5.3906858078373E-4
-0.9374566002124125       -1.908700173002049       5.574060572200252E-4
-2                        -0.4490063200375265      8.327880065470205E-4
-2                        -0.6849268256405294      7.779120268019304E-4
-1.8097491300494364       -0.5683692088677957      8.009830141681287E-4
-0.8231802041682066       -2.1                     5.3906858078373E-4
-0.587776199631133        -2.1                     5.014549683702352E-4
-0.702442025043489        -1.9095207699513645      5.219557634739258E-4
-2                        -0.21308581443452423     8.963915809719062E-4
-2                        -0.4490063200375265      8.327880065470205E-4
-1.8097640917460813       -0.3318487261805915      8.605596344569911E-4
-0.587776199631133        -2.1                     5.014549683702352E-4
-0.3523721950940597       -2.1                     4.596945823211129E-4
-0.4672480472817225       -1.9100923020549863      4.816241423027144E-4
-2                        0.02283469116847825      9.679516549367069E-4
-2                        -0.21308581443452423     8.963915809719062E-4
-1.8105412062410897       -0.0958658833976639      9.286203707175069E-4
-0.3523721950940597       -2.1                     4.596945823211129E-4
-0.11696819055698615      -2.1                     4.1527088031548715E-4
-0.23252005099952355      -1.9100649405128722      4.379118356687723E-4
-2                        0.2587551967714812       0.0010461394095041838
-2                        0.02283469116847825      9.679516549367069E-4
-1.8110785387248838       0.14021195088646163      0.0010042602713840776
-0.11696819055698615      -2.1                     4.1527088031548715E-4
0.11843581398008718       -2.1                     3.698196543973877E-4
0.0028064179962684482     -1.9097863682838865      3.922253238591133E-4
0.3639115504057773        -0.1                     0
0.27                      -0.1                     0
0.3155232914343534        -0.1891591978532564      1.042062144269082E-4
0.18706786716800006       0                        2.4694924620062114E-4
0.09725799567993655       0                        3.8490241512345374E-4
0.136474273000267         -0.06484323953093968     2.906370662815305E-4
0.09725799567993655       0                        3.8490241512345374E-4
0                         0                        4.90106246308439E-4
0.04825893493545653       -0.083540921452322       3.959316626792443E-4
-2                        0.49467570237448366      0.0011290710093881814
-2                        0.2587551967714812       0.0010461394095041838
-1.8108872450663813       0.37611999723855494      0.0010857579039832159
0.11843581398008718       -2.1                     3.698196543973877E-4
0.3538398185171605        -2.1                     3.2496863705982744E-4
0.23790455401201951       -1.9095195768809718      3.464264342085944E-4
0.4676574669449062        -0.1                     0
0.3639115504057773        -0.1                     0
0.41484073698070734       -0.19607074930896257     7.063664803478568E-5
0.27                      -0.1                     0
0.27                      0                        0
0.2093597961748373        -0.058752783995909975    1.5991244328936407E-4
0.27                      0                        0
0.18706786716800006       0                        2.4694924620062114E-4
0.2093597961748373        -0.058752783995909975    1.5991244328936407E-4
0                         0                        4.90106246308439E-4
0                         0.10390640015745226      5.706307556234641E-4
-0.09240933680645019      0.05644175854491199      6.027744608709825E-4
-2                        0.7305962079774864       0.0012143996332863224
-2                        0.49467570237448366      0.0011290710093881814
-1.8102978591166694       0.6121077323603339       0.0011710388201739232
0.3538398185171605        -2.1                     3.2496863705982744E-4
0.5892438230542343        -2.1                     2.8215560013133007E-4
0.47351012803695564       -1.9096142074834344      3.019879437034205E-4
0.5822677116210757        -0.1                     0
0.4676574669449062        -0.1                     0
0.5254387392722403        -0.19828333020975616     5.19048132849317E-5
0                         0.10390640015745226      5.706307556234641E-4
0                         0.21464725366904303      6.766088174077769E-4
-0.09413192195342449      0.162719619652995        6.847537656829837E-4
-2                        0.9665167135804887       0.0012994764375166426
-2                        0.7305962079774864       0.0012143996332863224
-1.809636460660011        0.8481252817224755       0.0012575142461235791
0.5892438230542343        -2.1                     2.8215560013133007E-4
0.8246478275913076        -2.1                     2.424806298041328E-4
0.7092119849183914        -1.9101441564387935      2.603197976074776E-4
0.7088801016846716        -0.1                     0
0.5822677116210757        -0.1                     0
0.6463164295287661        -0.20419523662202613     4.2100663463829754E-5
0                         0.21464725366904303      6.766088174077769E-4
0                         0.33402136525582626      8.016045476253217E-4
-0.10238192627319108      0.2773266173600838       7.88546486035055E-4
-2                        1.2024372191834916       0.0013815452691688973
-2                        0.9665167135804887       0.0012994764375166426
-1.8093966065345832       1.0848785704694899       0.0013426318342376333
0.8246478275913076        -2.1                     2.424806298041328E-4
1.060051832128381         -2.1                     2.0663618863704056E-4
0.944810122475995         -1.9110638723910947      2.2236399658060214E-4
0.8462977796009774        -0.1                     0
0.7088801016846716        -0.1                     0
0.7768427587250946        -0.20990692940404454     3.530854124267111E-5
0.9855914897201027        -0.1                     0
0.8462977796009774        -0.1                     0
0.913331841434306         -0.21558011435769117     3.037009872992527E-5
0                         0.33402136525582626      8.016045476253217E-4
0                         0.4654409456151904       9.428683411734309E-4
-0.11195765141043862      0.40324858292617355      9.083980694801846E-4
-2                        1.4383577247864943       0.0014579355966872214
-2                        1.2024372191834916       0.0013815452691688973
-1.8102250904199269       1.3218538434612288       0.0014233417686989739
1.060051832128381         -2.1                     2.0663618863704056E-4
1.295455836665455         -2.1                     1.7492298209379785E-4
1.1802724333881178        -1.9121585231134839      1.8858381000360703E-4
1.125026545438824         -0.1                     0
0.9855914897201027        -0.1                     0
1.0526738918134877        -0.21908653224120095     2.6162367168000944E-5
0                         0.4654409456151904       9.428683411734309E-4
0                         0.610624405923613        0.0010976992801002854
-0.12289197340930254      0.5418004846451476       0.0010411176647138131
-2                        1.6742782303894965       0.0015262299025795263
-2                        1.4383577247864943       0.0014579355966872214
-1.8117366697933595       1.5575821788674828       0.0014965397970494595
1.295455836665455         -2.1                     1.7492298209379785E-4
1.530859841202528         -2.1                     1.4732619870165821E-4
1.415644348200134         -1.9131497033115414      1.590562459778996E-4
1.2644616011575456        -0.1                     0
1.125026545438824         -0.1                     0
1.192874707343497         -0.22084913007607143     2.2573507953694425E-5
1.4038966568762674        -0.1                     0
1.2644616011575456        -0.1                     0
1.332907164897741         -0.22178949665731593     1.9590030448635418E-5
0                         0.610624405923613        0.0010976992801002854
0                         0.7710264798716884       0.0012636404324784002
-0.13536872088927018      0.6951252260151842       0.0011845288609739918
-2                        1.910198735992499        0.0015843952660958907
-2                        1.6742782303894965       0.0015262299025795263
-1.8133091131503543       1.7928042318094808       0.0015602853834200904
1.530859841202528         -2.1                     1.4732619870165821E-4
1.7662638457396016        -2.1                     1.2361475737627766E-4
1.6509678419102916        -1.913947536518745       1.3359937880191877E-4
1.5433317125949886        -0.1                     0
1.4038966568762674        -0.1                     0
1.4728399671468908        -0.22170163536203236     1.701364256252606E-5
1.6827667683137104        -0.1                     0
1.5433317125949886        -0.1                     0
1.6126369874543267        -0.22130472154584246     1.4840367348440365E-5
0                         0.7710264798716884       0.0012636404324784002
0                         0.9482303952029425       0.0014379185190622945
-0.14885945969644046      0.8648426735342333       0.0013357258912471174
-2                        2.146119241595502        0.0016308806415210862
-2                        1.910198735992499        0.0015843952660958907
-1.8142915345256305       2.0277163781428866       0.0016129063846821532
1.7662638457396016        -2.1                     1.2361475737627766E-4
2.001667850276675         -2.1                     1.0343387987910668E-4
1.8862179694928296        -1.9145872085847693      1.118824684462298E-4
1.8222018240324316        -0.1                     0
1.6827667683137104        -0.1                     0
1.7524205024856452        -0.22053470949905415     1.2971044272776453E-5
0                         0.9482303952029425       0.0014379185190622945
0                         1.1439937446136246       0.001616731305613866
-0.16192274258080808      1.0514843059799799       0.0014906150116571909
-2                        2.382039747198504        0.0016646846716442966
-2                        2.146119241595502        0.0016308806415210862
-1.8145440777929016       2.2632242380517997       0.0016533145983802658
2.001667850276675         -2.1                     1.0343387987910668E-4
2.2370718548137485        -2.1                     8.637642042409348E-5
2.1212403142882224        -1.9149067733046004      9.350566971678159E-5
1.9616368797511532        -0.1                     0
1.8222018240324316        -0.1                     0
1.8921889778912155        -0.21910083407876818     1.131860241565216E-5
0                         1.1439937446136246       0.001616731305613866
0                         1.3588800130833947       0.0017935051303517961
-0.1732581259874024       1.2542482820910217       0.0016437663364171587
-2                        2.617960252801507        0.0016853998859429234
-2                        2.382039747198504        0.0016646846716442966
-1.8145535266948256       2.4988131618576177       0.0016806372087832977
2.2370718548137485        -2.1                     8.637642042409348E-5
2.4724758593508214        -2.1                     7.203058621000595E-5
2.3561757520121613        -1.9147880629664602      7.802849881762221E-5
2.101071935469875         -0.1                     0
1.9616368797511532        -0.1                     0
2.0316898183392325        -0.21925732829813563     1.0040994299142551E-5
0                         1.3588800130833947       0.0017935051303517961
0                         1.5858597535302605       0.0019549300891435104
-0.1795084219252066       1.473580209319907        0.0017912402629661971
0                         1.5858597535302605       0.0019549300891435104
0                         1.8143948151476934       0.002088253912049106
-0.18186824464524037      1.6998398195295814       0.0019212911350319493
-2                        2.853880758404509        0.0016932367579227602
-2                        2.617960252801507        0.0016853998859429234
-1.8145862475632197       2.734488951757493        0.0016947428217358057
2.4724758593508214        -2.1                     7.203058621000595E-5
2.707879863887895         -2.1                     6.000793270151078E-5
2.5899536735415256        -1.9134352851616074      6.509202915049272E-5
2.2405069911885964        -0.1                     0
2.101071935469875         -0.1                     0
2.170954403518864         -0.21946306339801872     8.934208786026656E-6
2.379942046907318         -0.1                     0
2.2405069911885964        -0.1                     0
2.309867120532118         -0.22014465275618314     7.99812343389853E-6
2.519377102626039         -0.1                     0
2.379942046907318         -0.1                     0
2.4488005906732924        -0.2209684430572204      7.178666136490965E-6
2.658812158344761         -0.1                     0
2.519377102626039         -0.1                     0
2.5880989398843437        -0.22170854871881326     6.444034661238766E-6
2.7982472140634824        -0.1                     0
2.658812158344761         -0.1                     0
2.7277088914998533        -0.22229159769563386     5.780892601980566E-6
2.937682269782204         -0.1                     0
2.7982472140634824        -0.1                     0
2.8673465975262697        -0.22265964559435705     5.180566604778959E-6
0                         1.8143948151476934       0.002088253912049106
0                         2.0429298767651267       0.0021897648757986587
-0.18216771003371712      1.9273041279334155       0.0020265813014640364
0                         2.0429298767651267       0.0021897648757986587
0                         2.2714649383825596       0.0022575249408471683
-0.18229260576086537      2.1562463098664746       0.0021038008815552752
-2                        3.0898012640075114       0.0016890288445958735
-2                        2.853880758404509        0.0016932367579227602
-1.8147035551189845       2.970305247884012        0.0016961330412463439
2.707879863887895         -2.1                     6.000793270151078E-5
2.9432838684249694        -2.1                     4.995736035882566E-5
2.825796342759402         -1.9132455382417968      5.41789353699688E-5
3.077117325500925         -0.1                     0
2.937682269782204         -0.1                     0
3.006845660651237         -0.22280196545492512     4.6373073852597635E-6
3.216552381219647         -0.1                     0
3.077117325500925         -0.1                     0
3.146241572668467         -0.2227424114060532      4.146512391881341E-6
0                         2.2714649383825596       0.0022575249408471683
0                         2.499999999999993        0.0022902228266561435
-0.1823419249881126       2.385524144460483        0.0021506325010905523
-2                        3.3257217696105137       0.0016742164442910615
-2                        3.0898012640075114       0.0016890288445958735
-1.8147743583868332       3.2062665836821345       0.0016859357536801454
2.9432838684249694        -2.1                     4.995736035882566E-5
3.178687872962042         -2.1                     4.157003689982297E-5
3.0614391638272775        -1.912865551540289       4.507744086529826E-5
3.355987436938369         -0.1                     0
3.216552381219647         -0.1                     0
3.2856120273994947        -0.22253224234583127     3.7045942832250768E-6
3.4954224926570903        -0.1                     0
3.355987436938369         -0.1                     0
3.425086090583705         -0.22232270811302624     3.3105068914248688E-6
0                         2.499999999999993        0.0022902228266561435
0                         2.7285350616174258       0.0022872191752860817
-0.1822236976140133       2.614944241793911        0.00216612273454527
0                         2.7285350616174258       0.0022872191752860817
0                         2.957070123234859        0.002248575491164575
-0.18182831952101428      2.844479394520134        0.002150090733984218
-2                        3.561642275213515        0.0016508027164553762
-2                        3.3257217696105137       0.0016742164442910615
-1.814508241982538        3.4422189006433794       0.0016658988765494154
3.178687872962042         -2.1                     4.157003689982297E-5
3.4140918774991156        -2.1                     3.4579238838563803E-5
3.2970061712504695        -1.9127564014644418      3.749437342122711E-5
3.6348575483758117        -0.1                     0
3.4954224926570903        -0.1                     0
3.564745989017066         -0.22231573791816542     2.9635063562666183E-6
3.774292604094533         -0.1                     0
3.6348575483758117        -0.1                     0
3.704437425395104         -0.22251683930070898     2.657830681716793E-6
0                         2.957070123234859        0.002248575491164575
0                         3.185605184852292        0.0021750658816343613
-0.18103431719503904      3.0739776433646573       0.002103093859932941
-2                        3.797562780816517        0.0016212728262288009
-2                        3.561642275213515        0.0016508027164553762
-1.8134260535470643       3.6778830759728005       0.0016383447883996038
3.4140918774991156        -2.1                     3.4579238838563803E-5
3.6494958820361894        -2.1                     2.875737865246059E-5
3.5325985356809597        -1.9130223104015338      3.1179674003587704E-5
3.913727659813255         -0.1                     0
3.774292604094533         -0.1                     0
3.844001964580865         -0.2227039137934069      2.3840196008121393E-6
4.053162715531976         -0.1                     0
3.913727659813255         -0.1                     0
3.983533451182107         -0.22272860799811336     2.1359179315483726E-6
0                         3.185605184852292        0.0021750658816343613
0                         3.4141402464697252       0.0020681713880311417
-0.17941097912602774      3.302977961818844        0.0020267219232739235
0                         3.4141402464697252       0.0020681713880311417
0                         3.641119986916597        0.0019310945375969257
-0.17613686177319635      3.5289963861416385       0.0019245340730017573
0                         3.641119986916597        0.0019310945375969257
0                         3.8560062553863665       0.0017754451196404584
-0.1690979428154845       3.7473075363988624       0.0018031306777632145
0                         3.8560062553863665       0.0017754451196404584
0                         4.051769604797049        0.0016142327114222776
-0.15879845081525432      3.951390900587333        0.0016708210979649253
-2                        4.0334832864195205       0.00158846370208551
-2                        3.797562780816517        0.0016212728262288009
-1.812388910890345        3.9139707177051837       0.001605881519726715
3.6494958820361894        -2.1                     2.875737865246059E-5
3.8848998865732622        -2.1                     2.3911855876569085E-5
3.768076711339408         -1.9134476851189879      2.5926680360463808E-5
4.192597771250697         -0.1                     0
4.053162715531976         -0.1                     0
4.123173315966267         -0.22265607970849863     1.9121536437801857E-6
4.332032826969419         -0.1                     0
4.192597771250697         -0.1                     0
4.262887984957112         -0.2225697145639814      1.7116765605618661E-6
0                         4.051769604797049        0.0016142327114222776
0                         4.228973520128305        0.0014546553069333952
-0.14640986302166575      4.137549911688174        0.0015354486852418934
-2                        4.269403792022521        0.0015553752055948956
-2                        4.0334832864195205       0.00158846370208551
-1.8112369623242779       4.150177172422889        0.001571554456295445
3.8848998865732622        -2.1                     2.3911855876569085E-5
4.120303891110336         -2.1                     1.988059050931198E-5
4.003253548477235         -1.9137409163502896      2.156082606205545E-5
4.471467882688141         -0.1                     0
4.332032826969419         -0.1                     0
4.402591687730564         -0.22245830723910032     1.5320176895381317E-6
4.610902938406863         -0.1                     0
4.471467882688141         -0.1                     0
4.542291634883714         -0.22231805150883424     1.3709678630832007E-6
0                         4.228973520128305        0.0014546553069333952
0                         4.389375594076383        0.00130133061049399
-0.13478616034299182      4.306646857114516        0.0014019785874574112
-2                        4.505324297625524        0.0015249199874084616
-2                        4.269403792022521        0.0015553752055948956
-1.8108990640579306       4.3863985952651126       0.0015384785464532286
4.120303891110336         -2.1                     1.988059050931198E-5
4.35570789564741          -2.1                     1.6527706073783462E-5
4.238223236357064         -1.9136704712417378      1.793082232810091E-5
4.750337994125584         -0.1                     0
4.610902938406863         -0.1                     0
4.681973398034401         -0.222155867764129       1.2266974436433348E-6
0                         4.389375594076383        0.00130133061049399
0                         4.534559054384806        0.0011579120267166828
-0.12390885147414508      4.460050095550938        0.0012748511139426505
0                         4.534559054384806        0.0011579120267166828
0                         4.665978634744171        0.0010281472141525111
-0.11431750405086824      4.598908349427916        0.0011585003688541341
-2                        4.7412448032285255       0.0014996292687750599
-2                        4.505324297625524        0.0015249199874084616
-1.810825790900088        4.622746456789798        0.001509526309184779
4.8897730498443055        -0.1                     0
4.750337994125584         -0.1                     0
4.82158565554097          -0.22194589576647897     1.0972773221162838E-6
4.35570789564741          -2.1                     1.6527706073783462E-5
4.591111900184483         -2.1                     1.3739593260937836E-5
4.473364488870661         -1.913217936025103       1.4908465256542477E-5
5.029208105563027         -0.1                     0
4.8897730498443055        -0.1                     0
4.961178047977154         -0.2217109037287116      9.813508049960261E-7
0                         4.665978634744171        0.0010281472141525111
0                         4.785352746330957        9.166284871169417E-4
-0.10616172329562268      4.724920711233303        0.0010572460786527293
-2                        4.977165308831528        0.0014813558775211247
-2                        4.7412448032285255       0.0014996292687750599
-1.810934242614844        4.8591477658263225       0.0014870491782777594
4.591111900184483         -2.1                     1.3739593260937836E-5
4.826515904721557         -2.1                     1.1421438660480047E-5
4.70881662155852          -1.9126859944033898      1.2391940965987127E-5
5.168643161281748         -0.1                     0
5.029208105563027         -0.1                     0
5.100788308544586         -0.22157220136551412     8.783714045818386E-7
0                         4.785352746330957        9.166284871169417E-4
0                         4.896093599842548        8.299887850868648E-4
-0.09875504944445097      4.840263815955695        9.752974274622582E-4
-2                        5.21308581443453         0.0014710384592937409
-2                        4.977165308831528        0.0014813558775211247
-1.8109653461710749       5.095612306736077        0.001472535166242886
-2                        5.449006320037531        0.0014685921696622653
-2                        5.21308581443453         0.0014710384592937409
-1.8104698060615043       5.332418170827913        0.001466418738672178
4.826515904721557         -2.1                     1.1421438660480047E-5
5.061919909258631         -2.1                     9.494218038281827E-6
4.944317778872884         -1.912532314174615       1.0300015776696794E-5
5.308078217000469         -0.1                     0
5.168643161281748         -0.1                     0
5.2402854346454175        -0.22163605167058242     7.875910711777275E-7
0                         4.896093599842548        8.299887850868648E-4
0                         5                        7.802296754444897E-4
-0.09752139268225549      4.944990626336669        9.249965125231763E-4
-2                        5.6849268256405345       0.0014729635000080216
-2                        5.449006320037531        0.0014685921696622653
-1.8095149671305624       5.569514327014867        0.0014680993904711685
5.447513272719191         -0.1                     0
5.308078217000469         -0.1                     0
5.379471834422474         -0.2218116247760093      7.070243450352229E-7
5.061919909258631         -2.1                     9.494218038281827E-6
5.297323913795703         -2.1                     7.892120104707458E-6
5.179835162781797         -1.9126174191717071      8.561259232994224E-6
5.586948328437913         -0.1                     0
5.447513272719191         -0.1                     0
5.518295822878883         -0.22178694500657162     6.338493376131731E-7
5.726383384156634         -0.1                     0
5.586948328437913         -0.1                     0
5.65697084260933          -0.22167894489010276     5.679348017993135E-7
0                         5                        7.802296754444897E-4
0.09725799567993704       5                        6.077200949248425E-4
0.04549028241684818       5.084242024656803        6.988976118680828E-4
-2                        5.920847331243536        0.0014823390742457327
-2                        5.6849268256405345       0.0014729635000080216
-1.8068187192012128       5.80682498208139         0.0014760087482646308
-2                        6.156767836846538        0.0014944528729024784
-2                        5.920847331243536        0.0014823390742457327
-1.8026107942666219       6.047812453281348        0.0014881658765686396
5.297323913795703         -2.1                     7.892120104707458E-6
5.532727918332776         -2.1                     6.5603698956185954E-6
5.415313699135471         -1.9127954095606348      7.116297046096443E-6
5.865818439875356         -0.1                     0
5.726383384156634         -0.1                     0
5.795592355771693         -0.22128094252934744     5.076928888315951E-7
6.0052534955940775        -0.1                     0
5.865818439875356         -0.1                     0
5.934404023592075         -0.2209415381826476      4.539943076543108E-7
0.09725799567993704       5                        6.077200949248425E-4
0.18706786716800028       5                        3.8176130827926723E-4
0.1341775722796173        5.076781767364179        5.121066350443732E-4
0.18706786716800028       5                        3.8176130827926723E-4
0.27                      5                        0
0.20588771972661823       5.079897859618956        2.992167077254637E-4
-2                        6.39268834244954         0.001506931833473027