% Model:                CdZnTE_280211_2D_SE_WP_Cathode.mph
% Version:              COMSOL 4.1.0.88
% Date:                 Jul 11 2011, 14:49
% Dimension:            2
% Nodes:                56934
% Expressions:          1
% Description:          Electric potential
% x                       y                        V (V)
-2                        -1.8645293522661046      1.5567849342835977E-6
-2                        -2.1                     1.5473733485653743E-6
-1.846364360343395        -1.9401710821195468      1.547690981929783E-6
-2                        -2.1                     1.5473733485653743E-6
-1.764796222180569        -2.1                     1.538010882811047E-6
-1.846364360343395        -1.9401710821195468      1.547690981929783E-6
-2                        -1.6286088480525398      1.5852641935011285E-6
-2                        -1.8645293522661046      1.5567849342835977E-6
-1.8245167365948494       -1.7449367782940313      1.5634931315372701E-6
-2                        -1.3926883424495373      1.6332941409535624E-6
-2                        -1.6286088480525398      1.5852641935011285E-6
-1.8168623695316584       -1.512189523512412       1.600498582369998E-6
-1.764796222180569        -2.1                     1.538010882811047E-6
-1.529392217779427        -2.1                     1.5100764078720734E-6
-1.6425247983867886       -1.8914043628477542      1.5330163829969755E-6
-2                        -1.1567678368465348      1.7015768641992356E-6
-2                        -1.3926883424495373      1.6332941409535624E-6
-1.8122455777218598       -1.2767049080338484      1.6577493896436592E-6
-1.529392217779427        -2.1                     1.5100764078720734E-6
-1.2939882132423535       -2.1                     1.4641317722701962E-6
-1.3989614082807784       -1.9110406672624995      1.4924503733320316E-6
-2                        -0.920847331243532       1.7908605864670726E-6
-2                        -1.1567678368465348      1.7015768641992356E-6
-1.8109836351205506       -1.0405681798744235      1.7360302405384175E-6
-1.2939882132423535       -2.1                     1.4641317722701962E-6
-1.05858420870528         -2.1                     1.401212257015938E-6
-1.1696308739542287       -1.909293466203794       1.4382688859751788E-6
-2                        -0.6849268256405294      1.901685609433822E-6
-2                        -0.920847331243532       1.7908605864670726E-6
-1.810295659913922        -0.8045304929098868      1.8357665920194106E-6
-1.05858420870528         -2.1                     1.401212257015938E-6
-0.8231802041682066       -2.1                     1.3229204996126928E-6
-0.9374566002124125       -1.908700173002049       1.3674717313861853E-6
-2                        -0.4490063200375265      2.0340552661925656E-6
-2                        -0.6849268256405294      1.901685609433822E-6
-1.8097491300494364       -0.5683692088677957      1.9574678542641646E-6
-0.8231802041682066       -2.1                     1.3229204996126928E-6
-0.587776199631133        -2.1                     1.231533929503577E-6
-0.702442025043489        -1.9095207699513645      1.2813578110580714E-6
-2                        -0.21308581443452423     2.1870711033316753E-6
-2                        -0.4490063200375265      2.0340552661925656E-6
-1.8097640917460813       -0.3318487261805915      2.101077354614939E-6
-0.587776199631133        -2.1                     1.231533929503577E-6
-0.3523721950940597       -2.1                     1.1300464224132147E-6
-0.4672480472817225       -1.9100923020549863      1.1833476429257695E-6
-2                        0.02283469116847825      2.358605958226171E-6
-2                        -0.21308581443452423     2.1870711033316753E-6
-1.8105412062410897       -0.0958658833976639      2.2646454373632376E-6
-0.3523721950940597       -2.1                     1.1300464224132147E-6
-0.11696819055698615      -2.1                     1.0220872557622773E-6
-0.23252005099952355      -1.9100649405128722      1.077101238460068E-6
-2                        0.2587551967714812       2.545109080505007E-6
-2                        0.02283469116847825      2.358605958226171E-6
-1.8110785387248838       0.14021195088646163      2.4456838779664964E-6
-0.11696819055698615      -2.1                     1.0220872557622773E-6
0.11843581398008718       -2.1                     9.116766578975898E-7
0.0028064179962684482     -1.9097863682838865      9.66071525262827E-7
0.3639115504057773        -0.1                     0
0.27                      -0.1                     0
0.3155232914343534        -0.1891591978532564      2.574548917628536E-7
0.18706786716800006       0                        6.140418214014345E-7
0.09725799567993655       0                        9.55274106489749E-7
0.136474273000267         -0.06484323953093968     7.204682432144612E-7
0.09725799567993655       0                        9.55274106489749E-7
0                         0                        1.2143226608213676E-6
0.04825893493545653       -0.083540921452322       9.800967326834882E-7
-2                        0.49467570237448366      2.74161684850343E-6
-2                        0.2587551967714812       2.545109080505007E-6
-1.8108872450663813       0.37611999723855494      2.6396588822060357E-6
0.11843581398008718       -2.1                     9.116766578975898E-7
0.3538398185171605        -2.1                     8.028329091497072E-7
0.23790455401201951       -1.9095195768809718      8.548391709234976E-7
0.4676574669449062        -0.1                     0
0.3639115504057773        -0.1                     0
0.41484073698070734       -0.19607074930896257     1.7448068369911196E-7
0.27                      -0.1                     0
0.27                      0                        0
0.2093597961748373        -0.058752783995909975    3.9677753059416706E-7
0.27                      0                        0
0.18706786716800006       0                        6.140418214014345E-7
0.2093597961748373        -0.058752783995909975    3.9677753059416706E-7
0                         0                        1.2143226608213676E-6
0                         0.10390640015745226      1.4163859618817159E-6
-0.09240933680645019      0.05644175854491199      1.4924193877960213E-6
-2                        0.7305962079774864       2.941988660598516E-6
-2                        0.49467570237448366      2.74161684850343E-6
-1.8102978591166694       0.6121077323603339       2.841107607145916E-6
0.3538398185171605        -2.1                     8.028329091497072E-7
0.5892438230542343        -2.1                     6.991240110380293E-7
0.47351012803695564       -1.9096142074834344      7.470555529541426E-7
0.5822677116210757        -0.1                     0
0.4676574669449062        -0.1                     0
0.5254387392722403        -0.19828333020975616     1.282667260728287E-7
0                         0.10390640015745226      1.4163859618817159E-6
0                         0.21464725366904303      1.6821751441461007E-6
-0.09413192195342449      0.162719619652995        1.6976112835026925E-6
-2                        0.9665167135804887       3.139316142372177E-6
-2                        0.7305962079774864       2.941988660598516E-6
-1.809636460660011        0.8481252817224755       3.043274293752483E-6
0.5892438230542343        -2.1                     6.991240110380293E-7
0.8246478275913076        -2.1                     6.033019524984861E-7
0.7092119849183914        -1.9101441564387935      6.462269272911741E-7
0.7088801016846716        -0.1                     0
0.5822677116210757        -0.1                     0
0.6463164295287661        -0.20419523662202613     1.0414843294529783E-7
0                         0.21464725366904303      1.6821751441461007E-6
0                         0.33402136525582626      1.9955694181694975E-6
-0.10238192627319108      0.2773266173600838       1.95691922611259E-6
-2                        1.2024372191834916       3.3264165606528832E-6
-2                        0.9665167135804887       3.139316142372177E-6
-1.8093966065345832       1.0848785704694899       3.239426409958769E-6
0.8246478275913076        -2.1                     6.033019524984861E-7
1.060051832128381         -2.1                     5.171282852337966E-7
0.944810122475995         -1.9110638723910947      5.547225491319305E-7
0.8462977796009774        -0.1                     0
0.7088801016846716        -0.1                     0
0.7768427587250946        -0.20990692940404454     8.749805949332863E-8
0.9855914897201027        -0.1                     0
0.8462977796009774        -0.1                     0
0.913331841434306         -0.21558011435769117     7.544802170424308E-8
0                         0.33402136525582626      1.9955694181694975E-6
0                         0.4654409456151904       2.3495383718958615E-6
-0.11195765141043862      0.40324858292617355      2.256017184241501E-6
-2                        1.4383577247864943       3.4963202060417716E-6
-2                        1.2024372191834916       3.3264165606528832E-6
-1.8102250904199269       1.3218538434612288       3.4216537193081846E-6
1.060051832128381         -2.1                     5.171282852337966E-7
1.295455836665455         -2.1                     4.414118699195402E-7
1.1802724333881178        -1.9121585231134839      4.73745677863083E-7
1.125026545438824         -0.1                     0
0.9855914897201027        -0.1                     0
1.0526738918134877        -0.21908653224120095     6.521196234335487E-8
0                         0.4654409456151904       2.3495383718958615E-6
0                         0.610624405923613        2.7370045495399396E-6
-0.12289197340930254      0.5418004846451476       2.5866323751128957E-6
-2                        1.6742782303894965       3.642691003605343E-6
-2                        1.4383577247864943       3.4963202060417716E-6
-1.8117366697933595       1.5575821788674828       3.582042827465895E-6
1.295455836665455         -2.1                     4.414118699195402E-7
1.530859841202528         -2.1                     3.7619666996586297E-7
1.415644348200134         -1.9131497033115414      4.035600886330605E-7
1.2644616011575456        -0.1                     0
1.125026545438824         -0.1                     0
1.192874707343497         -0.22084913007607143     5.650863331753743E-8
1.4038966568762674        -0.1                     0
1.2644616011575456        -0.1                     0
1.332907164897741         -0.22178949665731593     4.930639939411147E-8
0                         0.610624405923613        2.7370045495399396E-6
0                         0.7710264798716884       3.1513190399415067E-6
-0.13536872088927018      0.6951252260151842       2.94286084185602E-6
-2                        1.910198735992499        3.7601536824545813E-6
-2                        1.6742782303894965       3.642691003605343E-6
-1.8133091131503543       1.7928042318094808       3.7154229735884467E-6
1.530859841202528         -2.1                     3.7619666996586297E-7
1.7662638457396016        -2.1                     3.2100756078300586E-7
1.6509678419102916        -1.913947536518745       3.4380419726802116E-7
1.5433317125949886        -0.1                     0
1.4038966568762674        -0.1                     0
1.4728399671468908        -0.22170163536203236     4.3112911833408355E-8
1.6827667683137104        -0.1                     0
1.5433317125949886        -0.1                     0
1.6126369874543267        -0.22130472154584246     3.792377228724473E-8
0                         0.7710264798716884       3.1513190399415067E-6
0                         0.9482303952029425       3.584831235952192E-6
-0.14885945969644046      0.8648426735342333       3.3168511178336706E-6
-2                        2.146119241595502        3.844530895057176E-6
-2                        1.910198735992499        3.7601536824545813E-6
-1.8142915345256305       2.0277163781428866       3.817328797870792E-6
1.7662638457396016        -2.1                     3.2100756078300586E-7
2.001667850276675         -2.1                     2.750808398926099E-7
1.8862179694928296        -1.9145872085847693      2.9376352483088053E-7
1.8222018240324316        -0.1                     0
1.6827667683137104        -0.1                     0
1.7524205024856452        -0.22053470949905415     3.349432934496547E-8
0                         0.9482303952029425       3.584831235952192E-6
0                         1.1439937446136246       4.027072414041615E-6
-0.16192274258080808      1.0514843059799799       3.6977252599217777E-6
-2                        2.382039747198504        3.893002623906177E-6
-2                        2.146119241595502        3.844530895057176E-6
-1.8145440777929016       2.2632242380517997       3.884621774122224E-6
2.001667850276675         -2.1                     2.750808398926099E-7
2.2370718548137485        -2.1                     2.375433708201789E-7
2.1212403142882224        -1.9149067733046004      2.525674861542799E-7
1.9616368797511532        -0.1                     0
1.8222018240324316        -0.1                     0
1.8921889778912155        -0.21910083407876818     2.960590862940984E-8
0                         1.1439937446136246       4.027072414041615E-6
0                         1.3588800130833947       4.460445209636009E-6
-0.1732581259874024       1.2542482820910217       4.071214354083849E-6
-2                        2.617960252801507        3.904203548502537E-6
-2                        2.382039747198504        3.893002623906177E-6
-1.8145535266948256       2.4988131618576177       3.914847254519138E-6
2.2370718548137485        -2.1                     2.375433708201789E-7
2.4724758593508214        -2.1                     2.0753443963756124E-7
2.3561757520121613        -1.9147880629664602      2.1927060768235244E-7
2.101071935469875         -0.1                     0
1.9616368797511532        -0.1                     0
2.0316898183392325        -0.21925732829813563     2.6682172337423293E-8
0                         1.3588800130833947       4.460445209636009E-6
0                         1.5858597535302605       4.850894649336439E-6
-0.1795084219252066       1.473580209319907        4.426938416477727E-6
0                         1.5858597535302605       4.850894649336439E-6
0                         1.8143948151476934       5.166672771603715E-6
-0.18186824464524037      1.6998398195295814       4.735320044543116E-6
-2                        2.853880758404509        3.878269111796227E-6
-2                        2.617960252801507        3.904203548502537E-6
-1.8145862475632197       2.734488951757493        3.907306341642704E-6
2.4724758593508214        -2.1                     2.0753443963756124E-7
2.707879863887895         -2.1                     1.842799678126265E-7
2.5899536735415256        -1.9134352851616074      1.931203871546198E-7
2.2405069911885964        -0.1                     0
2.101071935469875         -0.1                     0
2.170954403518864         -0.21946306339801872     2.4203799032670787E-8
2.379942046907318         -0.1                     0
2.2405069911885964        -0.1                     0
2.309867120532118         -0.22014465275618314     2.218223275767411E-8
2.519377102626039         -0.1                     0
2.379942046907318         -0.1                     0
2.4488005906732924        -0.2209684430572204      2.0484118897566653E-8
2.658812158344761         -0.1                     0
2.519377102626039         -0.1                     0
2.5880989398843437        -0.22170854871881326     1.9031484252173126E-8
2.7982472140634824        -0.1                     0
2.658812158344761         -0.1                     0
2.7277088914998533        -0.22229159769563386     1.7793498889235182E-8
2.937682269782204         -0.1                     0
2.7982472140634824        -0.1                     0
2.8673465975262697        -0.22265964559435705     1.674996520575774E-8
0                         1.8143948151476934       5.166672771603715E-6
0                         2.0429298767651267       5.398706479751836E-6
-0.18216771003371712      1.9273041279334155       4.978041573031733E-6
0                         2.0429298767651267       5.398706479751836E-6
0                         2.2714649383825596       5.542496807711847E-6
-0.18229260576086537      2.1562463098664746       5.146653711028052E-6
-2                        3.0898012640075114       3.81683663397588E-6
-2                        2.853880758404509        3.878269111796227E-6
-1.8147035551189845       2.970305247884012        3.8628218834301915E-6
2.707879863887895         -2.1                     1.842799678126265E-7
2.9432838684249694        -2.1                     1.671331696505648E-7
2.825796342759402         -1.9132455382417968      1.731316654731409E-7
3.077117325500925         -0.1                     0
2.937682269782204         -0.1                     0
3.006845660651237         -0.22280196545492512     1.588903740255475E-8
3.216552381219647         -0.1                     0
3.077117325500925         -0.1                     0
3.146241572668467         -0.2227424114060532      1.5203575804003943E-8
0                         2.2714649383825596       5.542496807711847E-6
0                         2.499999999999993        5.595288021872286E-6
-0.1823419249881126       2.385524144460483        5.235710877776756E-6
-2                        3.3257217696105137       3.7230000678955634E-6
-2                        3.0898012640075114       3.81683663397588E-6
-1.8147743583868332       3.2062665836821345       3.7837290909867287E-6
2.9432838684249694        -2.1                     1.671331696505648E-7
3.178687872962042         -2.1                     1.5559425208350172E-7
3.0614391638272775        -1.912865551540289       1.589614433674695E-7
3.355987436938369         -0.1                     0
3.216552381219647         -0.1                     0
3.2856120273994947        -0.22253224234583127     1.4690912410793321E-8
3.4954224926570903        -0.1                     0
3.355987436938369         -0.1                     0
3.425086090583705         -0.22232270811302624     1.4361249854476407E-8
0                         2.499999999999993        5.595288021872286E-6
0                         2.7285350616174258       5.556133419846336E-6
-0.1822236976140133       2.614944241793911        5.243251527221309E-6
0                         2.7285350616174258       5.556133419846336E-6
0                         2.957070123234859        5.4259152266816396E-6
-0.18182831952101428      2.844479394520134        5.169302046897515E-6
-2                        3.561642275213515        3.6012104030170665E-6
-2                        3.3257217696105137       3.7230000678955634E-6
-1.814508241982538        3.4422189006433794       3.6738945355986395E-6
3.178687872962042         -2.1                     1.5559425208350172E-7
3.4140918774991156        -2.1                     1.4931889742215054E-7
3.2970061712504695        -1.9127564014644418      1.5017519695599492E-7
3.6348575483758117        -0.1                     0
3.4954224926570903        -0.1                     0
3.564745989017066         -0.22231573791816542     1.4232242345774158E-8
3.774292604094533         -0.1                     0
3.6348575483758117        -0.1                     0
3.704437425395104         -0.22251683930070898     1.4301766000059813E-8
0                         2.957070123234859        5.4259152266816396E-6
0                         3.185605184852292        5.207320382748277E-6
-0.18103431719503904      3.0739776433646573       5.015774856999715E-6
-2                        3.797562780816517        3.4571075663437235E-6
-2                        3.561642275213515        3.6012104030170665E-6
-1.8134260535470643       3.6778830759728005       3.5386352936036727E-6
3.4140918774991156        -2.1                     1.4931889742215054E-7
3.6494958820361894        -2.1                     1.4812168663384477E-7
3.5325985356809597        -1.9130223104015338      1.4650213164846068E-7
3.913727659813255         -0.1                     0
3.774292604094533         -0.1                     0
3.844001964580865         -0.2227039137934069      1.4544174634074108E-8
4.053162715531976         -0.1                     0
3.913727659813255         -0.1                     0
3.983533451182107         -0.22272860799811336     1.494408501776824E-8
0                         3.185605184852292        5.207320382748277E-6
0                         3.4141402464697252       4.904775344991122E-6
-0.17941097912602774      3.302977961818844        4.787233799052546E-6
0                         3.4141402464697252       4.904775344991122E-6
0                         3.641119986916597        4.527174413183589E-6
-0.17613686177319635      3.5289963861416385       4.493527632366488E-6
0                         3.641119986916597        4.527174413183589E-6
0                         3.8560062553863665       4.105617252406891E-6
-0.1690979428154845       3.7473075363988624       4.1527742601974795E-6
0                         3.8560062553863665       4.105617252406891E-6
0                         4.051769604797049        3.6737995044909553E-6
-0.15879845081525432      3.951390900587333        3.7872292957936885E-6
-2                        4.0334832864195205       3.2972637860621374E-6
-2                        3.797562780816517        3.4571075663437235E-6
-1.812388910890345        3.9139707177051837       3.383660788254409E-6
3.6494958820361894        -2.1                     1.4812168663384477E-7
3.8848998865732622        -2.1                     1.5197876150963492E-7
3.768076711339408         -1.9134476851189879      1.47832189064508E-7
4.192597771250697         -0.1                     0
4.053162715531976         -0.1                     0
4.123173315966267         -0.22265607970849863     1.5513150230566156E-8
4.332032826969419         -0.1                     0
4.192597771250697         -0.1                     0
4.262887984957112         -0.2225697145639814      1.6267597586641067E-8
0                         4.051769604797049        3.6737995044909553E-6
0                         4.228973520128305        3.2494156221330438E-6
-0.14640986302166575      4.137549911688174        3.417183986739521E-6
-2                        4.269403792022521        3.1288249793767337E-6
-2                        4.0334832864195205       3.2972637860621374E-6
-1.8112369623242779       4.150177172422889        3.2161573783259E-6
3.8848998865732622        -2.1                     1.5197876150963492E-7
4.120303891110336         -2.1                     1.6103227792065979E-7
4.003253548477235         -1.9137409163502896      1.5420370893819087E-7
4.471467882688141         -0.1                     0
4.332032826969419         -0.1                     0
4.402591687730564         -0.22245830723910032     1.721385742890179E-8
4.610902938406863         -0.1                     0
4.471467882688141         -0.1                     0
4.542291634883714         -0.22231805150883424     1.836167391640473E-8
0                         4.228973520128305        3.2494156221330438E-6
0                         4.389375594076383        2.8432304952737085E-6
-0.13478616034299182      4.306646857114516        3.0539090219849453E-6
-2                        4.505324297625524        2.9590458651001576E-6
-2                        4.269403792022521        3.1288249793767337E-6
-1.8108990640579306       4.3863985952651126       3.043639150320801E-6
4.120303891110336         -2.1                     1.6103227792065979E-7
4.35570789564741          -2.1                     1.7559832411912403E-7
4.238223236357064         -1.9136704712417378      1.6582294726005373E-7
4.750337994125584         -0.1                     0
4.610902938406863         -0.1                     0
4.681973398034401         -0.222155867764129       1.9724408965650253E-8
0                         4.389375594076383        2.8432304952737085E-6
0                         4.534559054384806        2.463224295035848E-6
-0.12390885147414508      4.460050095550938        2.7075170608964615E-6
0                         4.534559054384806        2.463224295035848E-6
0                         4.665978634744171        2.1167651797611186E-6
-0.11431750405086824      4.598908349427916        2.387274367031328E-6
-2                        4.7412448032285255       2.7947492111249852E-6
-2                        4.505324297625524        2.9590458651001576E-6
-1.810825790900088        4.622746456789798        2.8733914303633356E-6
4.8897730498443055        -0.1                     0
4.750337994125584         -0.1                     0
4.82158565554097          -0.22194589576647897     2.131180451085097E-8
4.35570789564741          -2.1                     1.7559832411912403E-7
4.591111900184483         -2.1                     1.9617950148438068E-7
4.473364488870661         -1.913217936025103       1.831068555314288E-7
5.029208105563027         -0.1                     0
4.8897730498443055        -0.1                     0
4.961178047977154         -0.2217109037287116      2.3144795736535558E-8
0                         4.665978634744171        2.1167651797611186E-6
0                         4.785352746330957        1.8117896670614462E-6
-0.10616172329562268      4.724920711233303        2.1011737400515817E-6
-2                        4.977165308831528        2.6417780881160443E-6
-2                        4.7412448032285255       2.7947492111249852E-6
-1.810934242614844        4.8591477658263225       2.71209112148225E-6
4.591111900184483         -2.1                     1.9617950148438068E-7
4.826515904721557         -2.1                     2.234831944065051E-7
4.70881662155852          -1.9126859944033898      2.0668215851581484E-7
5.168643161281748         -0.1                     0
5.029208105563027         -0.1                     0
5.100788308544586         -0.22157220136551412     2.5268865659414514E-8
0                         4.785352746330957        1.8117896670614462E-6
0                         4.896093599842548        1.557617643799122E-6
-0.09875504944445097      4.840263815955695        1.8559895248465186E-6
-2                        5.21308581443453         2.504547226584948E-6
-2                        4.977165308831528        2.6417780881160443E-6
-1.8109653461710749       5.095612306736077        2.56506021880255E-6
-2                        5.449006320037531        2.385800188850953E-6
-2                        5.21308581443453         2.504547226584948E-6
-1.8104698060615043       5.332418170827913        2.435792242015201E-6
4.826515904721557         -2.1                     2.234831944065051E-7
5.061919909258631         -2.1                     2.5844646019808354E-7
4.944317778872884         -1.912532314174615       2.3735795243589473E-7
5.308078217000469         -0.1                     0
5.168643161281748         -0.1                     0
5.2402854346454175        -0.22163605167058242     2.773581858760845E-8
0                         4.896093599842548        1.557617643799122E-6
0                         5                        1.3734239671599673E-6
-0.09752139268225549      4.944990626336669        1.673610238354378E-6
-2                        5.6849268256405345       2.2866312711055766E-6
-2                        5.449006320037531        2.385800188850953E-6
-1.8095149671305624       5.569514327014867        2.326253158844962E-6
5.447513272719191         -0.1                     0
5.308078217000469         -0.1                     0
5.379471834422474         -0.2218116247760093      3.056018819605493E-8
5.061919909258631         -2.1                     2.5844646019808354E-7
5.297323913795703         -2.1                     3.022684923174901E-7
5.179835162781797         -1.9126174191717071      2.7618557016318747E-7
5.586948328437913         -0.1                     0
5.447513272719191         -0.1                     0
5.518295822878883         -0.22178694500657162     3.369471859659816E-8
5.726383384156634         -0.1                     0
5.586948328437913         -0.1                     0
5.65697084260933          -0.22167894489010276     3.719945117982699E-8
0                         5                        1.3734239671599673E-6
0.09725799567993704       5                        1.0773498817358982E-6
0.04549028241684818       5.084242024656803        1.1521971338847198E-6
-2                        5.920847331243536        2.2067536543065544E-6
-2                        5.6849268256405345       2.2866312711055766E-6
-1.8068187192012128       5.80682498208139         2.2366963639074397E-6
-2                        6.156767836846538        2.1449242399077444E-6
-2                        5.920847331243536        2.2067536543065544E-6
-1.8026107942666219       6.047812453281348        2.165325879596456E-6
5.297323913795703         -2.1                     3.022684923174901E-7
5.532727918332776         -2.1                     3.5645187779959214E-7
5.415313699135471         -1.9127954095606348      3.244850287533036E-7
5.865818439875356         -0.1                     0
5.726383384156634         -0.1                     0
5.795592355771693         -0.22128094252934744     4.1039807830246584E-8
6.0052534955940775        -0.1                     0
5.865818439875356         -0.1                     0
5.934404023592075         -0.2209415381826476      4.536793119481467E-8
0.09725799567993704       5                        1.0773498817358982E-6
0.18706786716800028       5                        6.884432650114084E-7
0.1341775722796173        5.076781767364179        8.408059348953143E-7
0.18706786716800028       5                        6.884432650114084E-7
0.27                      5                        0
0.20588771972661823       5.079897859618956        4.81321204911941E-7
-2                        6.39268834244954         2.099419538202372E-6